<?xml version="1.0"?>
<VTKFile type="UnstructuredGrid"  version="0.1"  >
<UnstructuredGrid>
<Piece  NumberOfPoints="2601" NumberOfCells="5000">
<Points>
<DataArray  type="Float64"  NumberOfComponents="3"  format="ascii">0 0 0  0.02 0 0  0.04 0 0  0.06 0 0  0.08 0 0  0.1 0 0  0.12 0 0  0.14 0 0  0.16 0 0  0.18 0 0  0.2 0 0  0.22 0 0  0.24 0 0  0.26 0 0  0.28 0 0  0.3 0 0  0.32 0 0  0.34 0 0  0.36 0 0  0.38 0 0  0.4 0 0  0.42 0 0  0.44 0 0  0.46 0 0  0.48 0 0  0.5 0 0  0.52 0 0  0.54 0 0  0.5600000000000001 0 0  0.58 0 0  0.6 0 0  0.62 0 0  0.64 0 0  0.66 0 0  0.68 0 0  0.7 0 0  0.72 0 0  0.74 0 0  0.76 0 0  0.78 0 0  0.8 0 0  0.82 0 0  0.84 0 0  0.86 0 0  0.88 0 0  0.9 0 0  0.92 0 0  0.9399999999999999 0 0  0.96 0 0  0.98 0 0  1 0 0  0 0.02 0  0.02 0.02 0  0.04 0.02 0  0.06 0.02 0  0.08 0.02 0  0.1 0.02 0  0.12 0.02 0  0.14 0.02 0  0.16 0.02 0  0.18 0.02 0  0.2 0.02 0  0.22 0.02 0  0.24 0.02 0  0.26 0.02 0  0.28 0.02 0  0.3 0.02 0  0.32 0.02 0  0.34 0.02 0  0.36 0.02 0  0.38 0.02 0  0.4 0.02 0  0.42 0.02 0  0.44 0.02 0  0.46 0.02 0  0.48 0.02 0  0.5 0.02 0  0.52 0.02 0  0.54 0.02 0  0.5600000000000001 0.02 0  0.58 0.02 0  0.6 0.02 0  0.62 0.02 0  0.64 0.02 0  0.66 0.02 0  0.68 0.02 0  0.7 0.02 0  0.72 0.02 0  0.74 0.02 0  0.76 0.02 0  0.78 0.02 0  0.8 0.02 0  0.82 0.02 0  0.84 0.02 0  0.86 0.02 0  0.88 0.02 0  0.9 0.02 0  0.92 0.02 0  0.9399999999999999 0.02 0  0.96 0.02 0  0.98 0.02 0  1 0.02 0  0 0.04 0  0.02 0.04 0  0.04 0.04 0  0.06 0.04 0  0.08 0.04 0  0.1 0.04 0  0.12 0.04 0  0.14 0.04 0  0.16 0.04 0  0.18 0.04 0  0.2 0.04 0  0.22 0.04 0  0.24 0.04 0  0.26 0.04 0  0.28 0.04 0  0.3 0.04 0  0.32 0.04 0  0.34 0.04 0  0.36 0.04 0  0.38 0.04 0  0.4 0.04 0  0.42 0.04 0  0.44 0.04 0  0.46 0.04 0  0.48 0.04 0  0.5 0.04 0  0.52 0.04 0  0.54 0.04 0  0.5600000000000001 0.04 0  0.58 0.04 0  0.6 0.04 0  0.62 0.04 0  0.64 0.04 0  0.66 0.04 0  0.68 0.04 0  0.7 0.04 0  0.72 0.04 0  0.74 0.04 0  0.76 0.04 0  0.78 0.04 0  0.8 0.04 0  0.82 0.04 0  0.84 0.04 0  0.86 0.04 0  0.88 0.04 0  0.9 0.04 0  0.92 0.04 0  0.9399999999999999 0.04 0  0.96 0.04 0  0.98 0.04 0  1 0.04 0  0 0.06 0  0.02 0.06 0  0.04 0.06 0  0.06 0.06 0  0.08 0.06 0  0.1 0.06 0  0.12 0.06 0  0.14 0.06 0  0.16 0.06 0  0.18 0.06 0  0.2 0.06 0  0.22 0.06 0  0.24 0.06 0  0.26 0.06 0  0.28 0.06 0  0.3 0.06 0  0.32 0.06 0  0.34 0.06 0  0.36 0.06 0  0.38 0.06 0  0.4 0.06 0  0.42 0.06 0  0.44 0.06 0  0.46 0.06 0  0.48 0.06 0  0.5 0.06 0  0.52 0.06 0  0.54 0.06 0  0.5600000000000001 0.06 0  0.58 0.06 0  0.6 0.06 0  0.62 0.06 0  0.64 0.06 0  0.66 0.06 0  0.68 0.06 0  0.7 0.06 0  0.72 0.06 0  0.74 0.06 0  0.76 0.06 0  0.78 0.06 0  0.8 0.06 0  0.82 0.06 0  0.84 0.06 0  0.86 0.06 0  0.88 0.06 0  0.9 0.06 0  0.92 0.06 0  0.9399999999999999 0.06 0  0.96 0.06 0  0.98 0.06 0  1 0.06 0  0 0.08 0  0.02 0.08 0  0.04 0.08 0  0.06 0.08 0  0.08 0.08 0  0.1 0.08 0  0.12 0.08 0  0.14 0.08 0  0.16 0.08 0  0.18 0.08 0  0.2 0.08 0  0.22 0.08 0  0.24 0.08 0  0.26 0.08 0  0.28 0.08 0  0.3 0.08 0  0.32 0.08 0  0.34 0.08 0  0.36 0.08 0  0.38 0.08 0  0.4 0.08 0  0.42 0.08 0  0.44 0.08 0  0.46 0.08 0  0.48 0.08 0  0.5 0.08 0  0.52 0.08 0  0.54 0.08 0  0.5600000000000001 0.08 0  0.58 0.08 0  0.6 0.08 0  0.62 0.08 0  0.64 0.08 0  0.66 0.08 0  0.68 0.08 0  0.7 0.08 0  0.72 0.08 0  0.74 0.08 0  0.76 0.08 0  0.78 0.08 0  0.8 0.08 0  0.82 0.08 0  0.84 0.08 0  0.86 0.08 0  0.88 0.08 0  0.9 0.08 0  0.92 0.08 0  0.9399999999999999 0.08 0  0.96 0.08 0  0.98 0.08 0  1 0.08 0  0 0.1 0  0.02 0.1 0  0.04 0.1 0  0.06 0.1 0  0.08 0.1 0  0.1 0.1 0  0.12 0.1 0  0.14 0.1 0  0.16 0.1 0  0.18 0.1 0  0.2 0.1 0  0.22 0.1 0  0.24 0.1 0  0.26 0.1 0  0.28 0.1 0  0.3 0.1 0  0.32 0.1 0  0.34 0.1 0  0.36 0.1 0  0.38 0.1 0  0.4 0.1 0  0.42 0.1 0  0.44 0.1 0  0.46 0.1 0  0.48 0.1 0  0.5 0.1 0  0.52 0.1 0  0.54 0.1 0  0.5600000000000001 0.1 0  0.58 0.1 0  0.6 0.1 0  0.62 0.1 0  0.64 0.1 0  0.66 0.1 0  0.68 0.1 0  0.7 0.1 0  0.72 0.1 0  0.74 0.1 0  0.76 0.1 0  0.78 0.1 0  0.8 0.1 0  0.82 0.1 0  0.84 0.1 0  0.86 0.1 0  0.88 0.1 0  0.9 0.1 0  0.92 0.1 0  0.9399999999999999 0.1 0  0.96 0.1 0  0.98 0.1 0  1 0.1 0  0 0.12 0  0.02 0.12 0  0.04 0.12 0  0.06 0.12 0  0.08 0.12 0  0.1 0.12 0  0.12 0.12 0  0.14 0.12 0  0.16 0.12 0  0.18 0.12 0  0.2 0.12 0  0.22 0.12 0  0.24 0.12 0  0.26 0.12 0  0.28 0.12 0  0.3 0.12 0  0.32 0.12 0  0.34 0.12 0  0.36 0.12 0  0.38 0.12 0  0.4 0.12 0  0.42 0.12 0  0.44 0.12 0  0.46 0.12 0  0.48 0.12 0  0.5 0.12 0  0.52 0.12 0  0.54 0.12 0  0.5600000000000001 0.12 0  0.58 0.12 0  0.6 0.12 0  0.62 0.12 0  0.64 0.12 0  0.66 0.12 0  0.68 0.12 0  0.7 0.12 0  0.72 0.12 0  0.74 0.12 0  0.76 0.12 0  0.78 0.12 0  0.8 0.12 0  0.82 0.12 0  0.84 0.12 0  0.86 0.12 0  0.88 0.12 0  0.9 0.12 0  0.92 0.12 0  0.9399999999999999 0.12 0  0.96 0.12 0  0.98 0.12 0  1 0.12 0  0 0.14 0  0.02 0.14 0  0.04 0.14 0  0.06 0.14 0  0.08 0.14 0  0.1 0.14 0  0.12 0.14 0  0.14 0.14 0  0.16 0.14 0  0.18 0.14 0  0.2 0.14 0  0.22 0.14 0  0.24 0.14 0  0.26 0.14 0  0.28 0.14 0  0.3 0.14 0  0.32 0.14 0  0.34 0.14 0  0.36 0.14 0  0.38 0.14 0  0.4 0.14 0  0.42 0.14 0  0.44 0.14 0  0.46 0.14 0  0.48 0.14 0  0.5 0.14 0  0.52 0.14 0  0.54 0.14 0  0.5600000000000001 0.14 0  0.58 0.14 0  0.6 0.14 0  0.62 0.14 0  0.64 0.14 0  0.66 0.14 0  0.68 0.14 0  0.7 0.14 0  0.72 0.14 0  0.74 0.14 0  0.76 0.14 0  0.78 0.14 0  0.8 0.14 0  0.82 0.14 0  0.84 0.14 0  0.86 0.14 0  0.88 0.14 0  0.9 0.14 0  0.92 0.14 0  0.9399999999999999 0.14 0  0.96 0.14 0  0.98 0.14 0  1 0.14 0  0 0.16 0  0.02 0.16 0  0.04 0.16 0  0.06 0.16 0  0.08 0.16 0  0.1 0.16 0  0.12 0.16 0  0.14 0.16 0  0.16 0.16 0  0.18 0.16 0  0.2 0.16 0  0.22 0.16 0  0.24 0.16 0  0.26 0.16 0  0.28 0.16 0  0.3 0.16 0  0.32 0.16 0  0.34 0.16 0  0.36 0.16 0  0.38 0.16 0  0.4 0.16 0  0.42 0.16 0  0.44 0.16 0  0.46 0.16 0  0.48 0.16 0  0.5 0.16 0  0.52 0.16 0  0.54 0.16 0  0.5600000000000001 0.16 0  0.58 0.16 0  0.6 0.16 0  0.62 0.16 0  0.64 0.16 0  0.66 0.16 0  0.68 0.16 0  0.7 0.16 0  0.72 0.16 0  0.74 0.16 0  0.76 0.16 0  0.78 0.16 0  0.8 0.16 0  0.82 0.16 0  0.84 0.16 0  0.86 0.16 0  0.88 0.16 0  0.9 0.16 0  0.92 0.16 0  0.9399999999999999 0.16 0  0.96 0.16 0  0.98 0.16 0  1 0.16 0  0 0.18 0  0.02 0.18 0  0.04 0.18 0  0.06 0.18 0  0.08 0.18 0  0.1 0.18 0  0.12 0.18 0  0.14 0.18 0  0.16 0.18 0  0.18 0.18 0  0.2 0.18 0  0.22 0.18 0  0.24 0.18 0  0.26 0.18 0  0.28 0.18 0  0.3 0.18 0  0.32 0.18 0  0.34 0.18 0  0.36 0.18 0  0.38 0.18 0  0.4 0.18 0  0.42 0.18 0  0.44 0.18 0  0.46 0.18 0  0.48 0.18 0  0.5 0.18 0  0.52 0.18 0  0.54 0.18 0  0.5600000000000001 0.18 0  0.58 0.18 0  0.6 0.18 0  0.62 0.18 0  0.64 0.18 0  0.66 0.18 0  0.68 0.18 0  0.7 0.18 0  0.72 0.18 0  0.74 0.18 0  0.76 0.18 0  0.78 0.18 0  0.8 0.18 0  0.82 0.18 0  0.84 0.18 0  0.86 0.18 0  0.88 0.18 0  0.9 0.18 0  0.92 0.18 0  0.9399999999999999 0.18 0  0.96 0.18 0  0.98 0.18 0  1 0.18 0  0 0.2 0  0.02 0.2 0  0.04 0.2 0  0.06 0.2 0  0.08 0.2 0  0.1 0.2 0  0.12 0.2 0  0.14 0.2 0  0.16 0.2 0  0.18 0.2 0  0.2 0.2 0  0.22 0.2 0  0.24 0.2 0  0.26 0.2 0  0.28 0.2 0  0.3 0.2 0  0.32 0.2 0  0.34 0.2 0  0.36 0.2 0  0.38 0.2 0  0.4 0.2 0  0.42 0.2 0  0.44 0.2 0  0.46 0.2 0  0.48 0.2 0  0.5 0.2 0  0.52 0.2 0  0.54 0.2 0  0.5600000000000001 0.2 0  0.58 0.2 0  0.6 0.2 0  0.62 0.2 0  0.64 0.2 0  0.66 0.2 0  0.68 0.2 0  0.7 0.2 0  0.72 0.2 0  0.74 0.2 0  0.76 0.2 0  0.78 0.2 0  0.8 0.2 0  0.82 0.2 0  0.84 0.2 0  0.86 0.2 0  0.88 0.2 0  0.9 0.2 0  0.92 0.2 0  0.9399999999999999 0.2 0  0.96 0.2 0  0.98 0.2 0  1 0.2 0  0 0.22 0  0.02 0.22 0  0.04 0.22 0  0.06 0.22 0  0.08 0.22 0  0.1 0.22 0  0.12 0.22 0  0.14 0.22 0  0.16 0.22 0  0.18 0.22 0  0.2 0.22 0  0.22 0.22 0  0.24 0.22 0  0.26 0.22 0  0.28 0.22 0  0.3 0.22 0  0.32 0.22 0  0.34 0.22 0  0.36 0.22 0  0.38 0.22 0  0.4 0.22 0  0.42 0.22 0  0.44 0.22 0  0.46 0.22 0  0.48 0.22 0  0.5 0.22 0  0.52 0.22 0  0.54 0.22 0  0.5600000000000001 0.22 0  0.58 0.22 0  0.6 0.22 0  0.62 0.22 0  0.64 0.22 0  0.66 0.22 0  0.68 0.22 0  0.7 0.22 0  0.72 0.22 0  0.74 0.22 0  0.76 0.22 0  0.78 0.22 0  0.8 0.22 0  0.82 0.22 0  0.84 0.22 0  0.86 0.22 0  0.88 0.22 0  0.9 0.22 0  0.92 0.22 0  0.9399999999999999 0.22 0  0.96 0.22 0  0.98 0.22 0  1 0.22 0  0 0.24 0  0.02 0.24 0  0.04 0.24 0  0.06 0.24 0  0.08 0.24 0  0.1 0.24 0  0.12 0.24 0  0.14 0.24 0  0.16 0.24 0  0.18 0.24 0  0.2 0.24 0  0.22 0.24 0  0.24 0.24 0  0.26 0.24 0  0.28 0.24 0  0.3 0.24 0  0.32 0.24 0  0.34 0.24 0  0.36 0.24 0  0.38 0.24 0  0.4 0.24 0  0.42 0.24 0  0.44 0.24 0  0.46 0.24 0  0.48 0.24 0  0.5 0.24 0  0.52 0.24 0  0.54 0.24 0  0.5600000000000001 0.24 0  0.58 0.24 0  0.6 0.24 0  0.62 0.24 0  0.64 0.24 0  0.66 0.24 0  0.68 0.24 0  0.7 0.24 0  0.72 0.24 0  0.74 0.24 0  0.76 0.24 0  0.78 0.24 0  0.8 0.24 0  0.82 0.24 0  0.84 0.24 0  0.86 0.24 0  0.88 0.24 0  0.9 0.24 0  0.92 0.24 0  0.9399999999999999 0.24 0  0.96 0.24 0  0.98 0.24 0  1 0.24 0  0 0.26 0  0.02 0.26 0  0.04 0.26 0  0.06 0.26 0  0.08 0.26 0  0.1 0.26 0  0.12 0.26 0  0.14 0.26 0  0.16 0.26 0  0.18 0.26 0  0.2 0.26 0  0.22 0.26 0  0.24 0.26 0  0.26 0.26 0  0.28 0.26 0  0.3 0.26 0  0.32 0.26 0  0.34 0.26 0  0.36 0.26 0  0.38 0.26 0  0.4 0.26 0  0.42 0.26 0  0.44 0.26 0  0.46 0.26 0  0.48 0.26 0  0.5 0.26 0  0.52 0.26 0  0.54 0.26 0  0.5600000000000001 0.26 0  0.58 0.26 0  0.6 0.26 0  0.62 0.26 0  0.64 0.26 0  0.66 0.26 0  0.68 0.26 0  0.7 0.26 0  0.72 0.26 0  0.74 0.26 0  0.76 0.26 0  0.78 0.26 0  0.8 0.26 0  0.82 0.26 0  0.84 0.26 0  0.86 0.26 0  0.88 0.26 0  0.9 0.26 0  0.92 0.26 0  0.9399999999999999 0.26 0  0.96 0.26 0  0.98 0.26 0  1 0.26 0  0 0.28 0  0.02 0.28 0  0.04 0.28 0  0.06 0.28 0  0.08 0.28 0  0.1 0.28 0  0.12 0.28 0  0.14 0.28 0  0.16 0.28 0  0.18 0.28 0  0.2 0.28 0  0.22 0.28 0  0.24 0.28 0  0.26 0.28 0  0.28 0.28 0  0.3 0.28 0  0.32 0.28 0  0.34 0.28 0  0.36 0.28 0  0.38 0.28 0  0.4 0.28 0  0.42 0.28 0  0.44 0.28 0  0.46 0.28 0  0.48 0.28 0  0.5 0.28 0  0.52 0.28 0  0.54 0.28 0  0.5600000000000001 0.28 0  0.58 0.28 0  0.6 0.28 0  0.62 0.28 0  0.64 0.28 0  0.66 0.28 0  0.68 0.28 0  0.7 0.28 0  0.72 0.28 0  0.74 0.28 0  0.76 0.28 0  0.78 0.28 0  0.8 0.28 0  0.82 0.28 0  0.84 0.28 0  0.86 0.28
[...]
<PointData  Scalars="f_12"> 
<DataArray  type="Float64"  Name="f_12"  format="ascii">-7.3638561771008127e-16  8.5138135418366839e-16  1.9089304766972468e-16  -6.8165921043340975e-15  -1.2737084842204184e-14  1.4763392119473931e-14  -1.8288965197660214e-14  1.2570197086314459e-14  -3.8208083487213679e-15  6.7860514727224612e-15  -9.1474648718841924e-15  2.9668798971774591e-14  1.2506652786323782e-15  -4.9900331074385385e-15  -4.3277564203079659e-14  -4.2701967202510202e-14  -1.2626363113897527e-14  -1.6555123493697461e-14  -1.8284605119496142e-14  -3.7073939677400101e-14  4.0145656600975907e-14  1.5343985388414406e-14  1.3441941281174249e-14  9.7642487357826513e-15  3.2744587432612540e-14  2.7075347405659296e-14  -2.2362254739373985e-14  9.3080074857274954e-15  -1.7391592185064578e-14  4.7103075290678486e-14  7.3392510611522215e-14  3.5015476229742668e-14  -3.4187628390746285e-14  4.4580012615807045e-15  -1.5383229407242916e-14  -5.6857620924484948e-15  1.4412199647300409e-14  1.9417351154979018e-14  1.7464256617332100e-14  2.5547806203803016e-14  8.9283871959191969e-15  -2.4718060008053112e-15  3.4963978418034585e-15  2.1584309631193102e-14  4.3114894305527780e-15  4.0222082189128186e-15  2.7763865659337383e-15  1.8796844179158877e-16  1.0737412649298101e-15  -1.2648341515271098e-15  1.1732076899680902e-15  5.4857994760160657e-15  4.3008989643024048e-02  8.5661803536146691e-02  1.2767953999452514e-01  1.6878545565583877e-01  2.0871808000767830e-01  2.4724034184816593e-01  2.8414734243178302e-01  3.1927340079878902e-01  3.5249829956210588e-01  3.8375233663104535e-01  4.1301960717234271e-01  4.4033886184281262e-01  4.6580133052036221e-01  4.8954509288987619e-01  5.1174592677581587e-01  5.3260504428189637e-01  5.5233467387312807e-01  5.7114300162862797e-01  5.8922052231250110e-01  6.0673035072827119e-01  6.2380529094058179e-01  6.4055375984218377e-01  6.5707409131597017e-01  6.7347281049693097e-01  6.8988001783096642e-01  7.0645667640678023e-01  7.2339285653483631e-01  7.4089902093585591e-01  7.5919253918472118e-01  7.7847977259402956e-01  7.9893201228114352e-01  8.2065244531884973e-01  8.4363157206666017e-01  8.6769015744336697e-01  8.9241190054996333e-01  9.1707231921084897e-01  9.4057486366070042e-01  9.6140795495737930e-01  9.7763492301425936e-01  9.8692126972218597e-01  9.8659219227490313e-01  9.7370325499304433e-01  9.4510362965517059e-01  8.9747517173408076e-01  8.2733842130427293e-01  7.3102429303554550e-01  6.0461522688520164e-01  4.4386122821697410e-01  2.4407453590865308e-01  -1.0815812284057558e-15  -5.5220053383744859e-15  8.5661803535775127e-02  1.7063140086750647e-01  2.5432109098172001e-01  3.3616124527208502e-01  4.1561697953784144e-01  4.9220386336253746e-01  5.6550291072883629e-01  6.3517479646884278e-01  7.0097278099652327e-01  7.6275341132021723e-01  8.2048374240069077e-01  8.7424364824533496e-01  9.2422185197710860e-01  9.7070468128289455e-01  1.0140572841510136e+00  1.0546980606118825e+00  1.0930682257543760e+00  1.1295995551956250e+00  1.1646844592869641e+00  1.1986537463932516e+00  1.2317686233185470e+00  1.2642329958014693e+00  1.2962264835447832e+00  1.3279478325547549e+00  1.3596508896310016e+00  1.3916601107090527e+00  1.4243649378050325e+00  1.4582001343606783e+00  1.4936184090565714e+00  1.5310562212202974e+00  1.5708883823341482e+00  1.6133644486238816e+00  1.6585203442867831e+00  1.7060619498638971e+00  1.7552238327265124e+00  1.8046159337616552e+00  1.8520821064310826e+00  1.8946023316120555e+00  1.9282684069748015e+00  1.9483459053106444e+00  1.9494068108677034e+00  1.9254919993263444e+00  1.8702550496256196e+00  1.7770499201906063e+00  1.6389448002923852e+00  1.4486623401653507e+00  1.1984571791366085e+00  8.7994502579852851e-01  4.8389582533525971e-01  3.4180366488258890e-15  -1.3803994202366579e-14  1.2767953999309359e-01  2.5432109097991262e-01  3.7900528316027854e-01  5.0084680198160170e-01  6.1901595436286161e-01  7.3276088095594738e-01  8.4142995567346957e-01  9.4449380015013906e-01  1.0415658997174939e+00  1.1324202571457733e+00  1.2170039948924027e+00  1.2954424611024280e+00  1.3680343902134313e+00  1.4352352000088555e+00  1.4976276768880010e+00  1.5558810208133820e+00  1.6107011581095190e+00  1.6627769664629275e+00  1.7127285504467327e+00  1.7610657786624548e+00  1.8081690651230371e+00  1.8543075911590245e+00  1.8997013453953593e+00  1.9446075237763416e+00  1.9893901300954446e+00  2.0345443518091919e+00  2.0806799263863458e+00  2.1284841085039674e+00  2.1786793878594364e+00  2.2319772437667456e+00  2.2890182217593362e+00  2.3502840833260126e+00  2.4159686414752484e+00  2.4857985400162570e+00  2.5588049868410776e+00  2.6330641810448556e+00  2.7054464334770070e+00  2.7714339513146600e+00  2.8250699377667905e+00  2.8590715617880065e+00  2.8650795030716254e+00  2.8339618784124130e+00  2.7560773032529409e+00  2.6214300885002206e+00  2.4196929605158699e+00  2.1401061328938704e+00  1.7712782214361762e+00  1.3009172082797327e+00  7.1551471453355298e-01  2.0782997911919159e-15  -4.0696700639069769e-15  1.6878545565224684e-01  3.3616124526622188e-01  5.0084680197649856e-01  6.6161029619908085e-01  8.1729645575699328e-01  9.6685596571345644e-01  1.1093760479071351e+00  1.2441114515073177e+00  1.3705144475913258e+00  1.4882616002817506e+00  1.5972742147949488e+00  1.6977286470930306e+00  1.7900524095525849e+00  1.8749025928714032e+00  1.9531248303635265e+00  2.0256937882629957e+00  2.0936393025235254e+00  2.1579646644556845e+00  2.2195646311018535e+00  2.2791525475630725e+00  2.3372145769008230e+00  2.3940274096663385e+00  2.4497687986746137e+00  2.5046881496443416e+00  2.5592382016129664e+00  2.6141040364232082e+00  2.6701547487816919e+00  2.7283737675448423e+00  2.7898002058086364e+00  2.8554800549582211e+00  2.9264057057327695e+00  3.0034169034003240e+00  3.0870391443177834e+00  3.1772402114186575e+00  3.2730967649783822e+00  3.3723882059006880e+00  3.4711763132307678e+00  3.5634761831840867e+00  3.6411468425108131e+00  3.6940836303169733e+00  3.7106683383176726e+00  3.6783115811398672e+00  3.5839039730108366e+00  3.4140653257253852e+00  3.1551692298456677e+00  2.7931772644507866e+00  2.3133369123405134e+00  1.6997930990015750e+00  9.3514934860214871e-01  4.6810214023115055e-15  3.5272326371056487e-15  2.0871808000049166e-01  4.1561697952519916e-01  6.1901595434820844e-01  8.1729645574585819e-01  1.0089368226001838e+00  1.1925495639372872e+00  1.3669211519145126e+00  1.5310536187737402e+00  1.6842063283973836e+00  1.8259350718129292e+00  1.9561242093836799e+00  2.0750061994582518e+00  2.1831619902881134e+00  2.2814961145801607e+00  2.3711826448658480e+00  2.4535826444515854e+00  2.5301392284398951e+00  2.6022599357103178e+00  2.6711947220458905e+00  2.7379133755018299e+00  2.8029966299629536e+00  2.8666239522695531e+00  2.9287653931853641e+00  2.9895354396888507e+00  3.0494506091458886e+00  3.1094377498609416e+00  3.1706979253957730e+00  3.2345715454035608e+00  3.3024643115607919e+00  3.3758170891729149e+00  3.4560714145016536e+00  3.5445828094950378e+00  3.6424455126267139e+00  3.7501922549407536e+00  3.8673378806309899e+00  3.9917676336289110e+00  4.1190415377943186e+00  4.2417903305868068e+00  4.3494663362257295e+00  4.4286607943190566e+00  4.4639222331404795e+00  4.4387231804883536e+00  4.3362128329959573e+00  4.1395854278470861e+00  3.8320748463258463e+00  3.3966721923891567e+00  2.8156730989182397e+00  2.0701362978014939e+00  1.1393029593041102e+00  -6.5237660122913970e-15  -1.0926554805283815e-14  2.4724034183565738e-01  4.9220386333958682e-01  7.3276088092629488e-01  9.6685596568346688e-01  1.1925495639164523e+00  1.4080636145874998e+00  1.6118315990264471e+00  1.8025526615157508e+00  1.9792482329152563e+00  2.1413178735207001e+00  2.2885888211797933e+00  2.4213512057587439e+00  2.5403687142718825e+00  2.6468539074745845e+00  2.7424001305502976e+00  2.8288693245427599e+00  2.9082457771056660e+00  2.9824737334092912e+00  3.0532910748128668e+00  3.1220423412620382e+00  3.1894234849243892e+00  3.2553322771472715e+00  3.3191836725784341e+00  3.3807054072789837e+00  3.4404746955973269e+00  3.4998009427022305e+00  3.5603560464543089e+00  3.6239145592886772e+00  3.6922808636753657e+00  3.7673257001902942e+00  3.8510250916007713e+00  3.9454218905646763e+00  4.0524725574457978e+00  4.1737205864183204e+00  4.3097154650319087e+00  4.4591231421761597e+00  4.6175791624688660e+00  4.7765462797013658e+00  4.9227150466042895e+00  5.0385135034565209e+00  5.1036493620793459e+00  5.0968667908021041e+00  4.9971742625481861e+00  4.7843248082227117e+00  4.4386868621763256e+00  3.9407412137090683e+00  3.2703988772583767e+00  2.4062600460877146e+00  1.3248716259736888e+00  2.4164567857980571e-16  4.0038676404382530e-15  2.8414734241212303e-01  5.6550291069141390e-01  8.4142995562240153e-01  1.1093760478494112e+00  1.3669211518598785e+00  1.6118315989893583e+00  1.8421211710254828e+00  2.0561196722403774e+00  2.2525479753385018e+00  2.4305963187928339e+00  2.5899993784101345e+00  2.7310973272262378e+00  2.8548673659317849e+00  2.9629069544818392e+00  3.0573518590583784e+00  3.1407236552974136e+00  3.2157235508493973e+00  3.2850123254920747e+00  3.3510157677170955e+00  3.4157203593488217e+00  3.4800973611185131e+00  3.5434564575511800e+00  3.6038696440940150e+00  3.6601481588885707e+00  3.7130536532782425e+00  3.7646537323355909e+00  3.8173561982500672e+00  3.8734468248898635e+00  3.9350951512712817e+00  4.0045643151009989e+00  4.0844027606986106e+00  4.1774908505991961e+00  4.2869675084822667e+00  4.4159574232776295e+00  4.5669181913030297e+00  4.7404205632136218e+00  4.9332875117222033e+00  5.1363747448495438e+00  5.3330558883215282e+00  5.5000037074971750e+00  5.6102778745868225e+00  5.6366198618885699e+00  5.5533790548044255e+00  5.3369706738027993e+00  4.9653908051615145e+00  4.4173010077077421e+00  3.6709995667624677e+00  2.7034264833796406e+00  1.4892461240516741e+00  -6.1432394210706800e-15  3.2742055201255390e-14  3.1927340076990074e-01  6.3517479641289587e-01  9.4449380007150074e-01  1.2441114514115270e+00  1.5310536186710006e+00  1.8025526614235294e+00  2.0561196721783537e+00  2.2896289552030407e+00  2.5014150761647476e+00  2.6903803434233597e+00  2.8561063070433157e+00  2.9989561364370996e+00  3.1201455501130573e+00  3.2217504069291585e+00  3.3066156062498253e+00  3.3781446133974908e+00  3.4399926565807415e+00  3.4957487197223660e+00  3.5487471617304469e+00  3.6022071675207892e+00  3.6580344134719960e+00  3.7145371246858470e+00  3.7664762382472738e+00  3.8105433669364177e+00  3.8483368157703697e+00  3.8836555249347748e+00  3.9201120655370141e+00  3.9605031987945418e+00  4.0071580110363385e+00  4.0625429694724096e+00  4.1297330267864218e+00  4.2125176123221992e+00  4.3154857886642857e+00  4.4439867033287559e+00  4.6035902237546180e+00  4.7986094315839276e+00  5.0292412189905953e+00  5.2872054638661110e+00  5.5517242253652812e+00  5.7905672661909620e+00  5.9667901396937788e+00  6.0451491615002091e+00  5.9948308416605860e+00  5.7893668874533404e+00  5.4052847781305315e+00  4.8204662175699076e+00  4.0126277768096985e+00  2.9580312874318744e+00  1.6304029503014708e+00  -1.5217838904849316e-14  1.1743533042589424e-14  3.5249829952219769e-01  7.0097278091808057e-01  1.0415658996032473e+00  1.3705144474472957e+00  1.6842063282325113e+00  1.9792482327434295e+00  2.2525479751855020e+00  2.5014150760640601e+00  2.7236823978779281e+00  2.9178495505927171e+00  3.0832441312651331e+00  3.2201877276314170e+00  3.3301378854149521e+00  3.4157548926621382e+00  3.4808214229255849e+00  3.5299500083466797e+00  3.5680893237595410e+00  3.5999662666199383e+00  3.6297045753402650e+00  3.6629727293724974e+00  3.7049100371197214e+00  3.7527849965183000e+00  3.7925790499349619e+00  3.8158970998341095e+00  3.8278893353286927e+00  3.8364820614415365e+00  3.8471302553619653e+00  3.8628004688668649e+00  3.8853817909543062e+00  3.9170768902616100e+00  3.9613834327471227e+00  4.0229146800486486e+00  4.1077462274748031e+00  4.2239835800509677e+00  4.3817727810379710e+00  4.5920064203079844e+00  4.8625823406418354e+00  5.1900576144706436e+00  5.5483955088946209e+00  5.8896532444780476e+00  6.1603936301665065e+00  6.3145908697262803e+00  6.3162993183011178e+00  6.1374809233668230e+00  5.7548229916086191e+00  5.1469593509151217e+00  4.2923558094433316e+00  3.1677502633643608e+00  1.7469733460565169e+00  3.6256268456033148e-15  -2.7558579919964332e-14  3.8375233657893731e-01  7.6275341121616214e-01  1.1324202569910324e+00  1.4882616000793745e+00  1.8259350715694145e+00  2.1413178732480738e+00  2.4305963185136270e+00  2.6903803431729836e+00  2.9178495504259989e+00  3.1109368933792663e+00  3.2685529772027171e+00  3.3908445218856391e+00  3.4794582661886078e+00  3.5377383138530258e+00  3.5707205814791374e+00  3.5847459243836894e+00  3.5866409891160353e+00  3.5826781721587948e+00  3.5756474551754960e+00  3.5757628690615877e+00  3.5987572514662869e+00  3.6442886061960169e+00  3.6726577972158054e+00  3.6624706571929733e+00  3.6332092624067385e+00  3.6021856917583599e+00  3.5767242590224355e+00  3.5585585775380117e+00  3.5477533842452273e+00  3.5452714192692283e+00  3.5552162714112372e+00  3.5826802289578765e+00  3.6346572158759614e+00  3.7219941222394870e+00  3.8606971532658840e+00  4.0719609331634556e+00  4.3796982452641391e+00  4.7965061006005234e+00  5.2903308120187349e+00  5.7810202431571858e+00  6.1856499981041324e+00  6.4446630396129123e+00  6.5190908342204734e+00  6.3824672822055257e+00  6.0144042699144720e+00  5.3964173806676516e+00  4.5093284598262464e+00  3.3316126350610920e+00  1.8382740369523283e+00  -4.8148088064666771e-15  -3.7417378703845288e-14  4.1301960710773505e-01  8.2048374227008780e-01  1.2170039946947477e+00  1.5972742145279435e+00  1.9561242090493469e+00  2.2885888207828633e+00  2.5899993779678749e+00  2.8561063065861552e+00  3.0832441308517371e+00  3.2685529769266011e+00  3.4102727515658260e+00  3.5081229013892612e+00  3.5637600470586066e+00  3.5812415992135622e+00  3.5672722810296826e+00  3.5307721860256671e+00  3.4815187317692424e+00  3.4302896564030125e+00  3.3676643874307954e+00  3.3103349938609878e+00  3.3062436261613226e+00  3.3807338966277327e+00  3.4107719512583596e+00  3.3394027442293428e+00  3.2434994888627307e+00  3.1575910555778028e+00  3.0864853865063182e+00  3.0267705345698412e+00  2.9741275452976468e+00  2.9260427791196535e+00  2.8893832402919140e+00  2.8688112594056521e+00  2.8702898428202155e+00  2.9061002793412150e+00  2.9980747599232882e+00  3.1801674601763454e+00  3.5063135277841662e+00  4.0384351562893652e+00  4.7418300655306931e+00  5.4587081490023124e+00  6.0504108729326731e+00  6.4465336685681409e+00  6.6130985801731503e+00  6.5315911267583493e+00  6.1887078211128008e+00  5.5714616247616382e+00  4.6647360750620521e+00  3.4499577458018651e+00  1.9042810720245427e+00  1.2367970163511291e-15  8.9594568898178887e-15  4.4033886176670484e-01  8.7424364808957544e-01  1.2954424608621895e+00  1.6977286467603219e+00  2.0750061990254052e+00  2.4213512052227371e+00  2.7310973265894773e+00  2.9989561357184420e+00  3.2201877268786534e+00  3.3908445211898393e+00  3.5081229009140134e+00  3.5708722153501409e+00  3.5803179333302717e+00  3.5410139902440614e+00  3.4618014265651342e+00  3.3555769315232582e+00  3.2349659159961917e+00  3.1364878063507184e+00  2.9922348144629480e+00  2.8202721562323076e+00  2.7546274078985409e+00  2.9721238518836031e+00  3.0519415001063357e+00  2.8338235652995656e+00  2.6282228913299424e+00  2.4742773806919409e+00  2.3527899165184194e+00  2.2478996890592420e+00  2.1481996559605925e+00  2.0401316427159850e+00  1.9449180432632467e+00  1.8632915644065193e+00  1.7951711567877204e+00  1.7510427716604187e+00  1.7559937154783678e+00  1.8488739888143870e+00  2.1256190710996421e+00  2.8020448164110419e+00  3.8671760351255258e+00  4.9432401235039869e+00  5.7865908941332123e+00  6.3476918673501865e+00  6.6184373100741078e+00  6.5984690052612098e+00  6.2864493785505156e+00  5.6773566066246000e+00  4.7615219559461259e+00  3.5242360382567015e+00  1.9455319456177789e+00  -3.4123205054167791e-14  -3.0524261133960233e-14  4.6580133043543298e-01  9.2422185180212890e-01  1.3680343899378036e+00  1.7900524091614614e+00  2.1831619897624917e+00  2.5403687135926831e+00  2.8548673650793184e+00  3.1201455490854939e+00  3.3301378842290292e+00  3.4794582649158836e+00  3.5637600458494787e+00  3.5803179324798799e+00  3.5290016752122053e+00  3.4139395790877956e+00  3.2463841936368008e+00  3.0475841035897577e+00  2.8088970824259358e+00  2.7209505606875415e+00  2.4669869947221681e+00  2.0364917944391308e+00  1.7227775966883951e+00  1.5810992038736620e+00  1.4499982998480136e+00  1.1017081825693986e+00  8.9828206929722876e-01  7.8836077269809968e-01  7.0640253604410186e-01  6.3191670184082616e-01  5.6145346129504281e-01  4.8743786070757489e-01  4.1738476718134593e-01  3.5435579846282989e-01  2.8877013291355280e-01  2.2526299089902938e-01  1.8255993117966549e-01  1.5250920629656400e-01  1.6080195475648984e-01  7.5514503875811390e-01  2.6527508264280364e+00  4.3267413280492644e+00  5.4662481703914656e+00  6.1951525042473614e+00  6.5648151651538473e+00  6.6017119693081634e+00  6.3191651160580244e+00  5.7211068825425286e+00  4.8037740254662857e+00  3.5566418752886571e+00  1.9629545593261883e+00  1.8748044417797744e-14  -7.5812036607803084e-15  4.8954509280149050e-01  9.7070468109839958e-01  1.4352351997130250e+00  1.8749025924397087e+00  2.2814961139814303e+00  2.6468539066679218e+00  2.9629069534211365e+00  3.2217504055712936e+00  3.4157548909766748e+00  3.5377383118463981e+00  3.5812415969793809e+00  3.5410139880458615e+00  3.4139395774756842e+00  3.2008994863267559e+00  2.9127395428830742e+00  2.6190064276626526e+00  2.0606908332333247e+00  1.5153216785729098e+00  1.0582378046346663e+00  5.3863131051037405e-01  2.2372522503138670e-01  1.8532231920657491e-02  -1.6477474246414686e-01  -2.9958002849411486e-01  -2.9485049671791497e-01  -2.6282597917464662e-01  -2.4375298843666182e-01  -2.3435921157431669e-01  -2.2715459668862781e-01  -2.1892843761896308e-01  -2.0842663848180437e-01  -2.0041275135604969e-01  -2.0096395356509716e-01  -1.9876153537702057e-01  -1.6900852964524080e-01  -1.8108263423242829e-01  -3.7555745695475479e-01  -4.2402239494140742e-01  1.4317740947331092e+00  3.8990109123768457e+00  5.2068033916727110e+00  6.0479442357270230e+00  6.4855315501995516e+00  6.5610951986337849e+00  6.2988454910762375e+00  5.7100048046038081e+00  4.7958499183327401e+00  3.5496191920156566e+00  1.9576445922336094e+00  4.3931579517115775e-15  6.2800053861310602e-15  5.1174592669145746e-01  1.0140572839730329e+00  1.4976276765954681e+00  1.9531248299238138e+00  2.3711826442334796e+00  2.7424001296616534e+00  3.0573518578330328e+00  3.3066156045922259e+00  3.4808214207307353e+00  3.5707205786408451e+00  3.5672722775094932e+00  3.4618014224663263e+00  3.2463841893917342e+00  2.9127395395724203e+00  2.4226360618918101e+00  1.6288506230330562e+00  7.4543266076448311e-01  7.1002996292640522e-02  -1.9578339875862905e-01  -2.9345440280282159e-01  -2.7600307182442746e-01  -2.5058396665302840e-01  -2.2969502869896735e-01  -1.8829896267500965e-01  -1.3265787755177455e-01  -9.8418621403661866e-02  -8.3135322676876511e-02  -7.3223075648183367e-02  -6.2660567224076313e-02  -5.0916435245879681e-02  -3.9614060642507318e-02  -3.3747776162443760e-02  -3.4139583869572852e-02  -1.7176017721165233e-02  4.5451317843661999e-02  3.4288318458279787e-02  -1.8322220385167015e-01  -4.8620723181013287e-01  8.8880734903168701e-01  3.6641096053699074e+00  5.0572623021124450e+00  5.9446286471844578e+00  6.4054299573816209e+00  6.4919542805869348e+00  6.2349633879730808e+00  5.6499610445405466e+00  4.7414284323451481e+00  3.5053458109861650e+00  1.9306381034938123e+00  5.6196288474152574e-14  -1.1547470057525100e-14  5.3260504421146204e-01  1.0546980604600324e+00  1.5558810205553368e+00  2.0256937878603671e+00  2.4535826438475530e+00  2.8288693236508382e+00  3.1407236540038719e+00  3.3781446115478579e+00  3.5299500057332751e+00  3.5847459207625394e+00