<?xml version="1.0"?>
<VTKFile type="UnstructuredGrid"  version="0.1"  >
<UnstructuredGrid>
<Piece  NumberOfPoints="2601" NumberOfCells="5000">
<Points>
<DataArray  type="Float64"  NumberOfComponents="3"  format="ascii">0 0 0  0.02 0 0  0.04 0 0  0.06 0 0  0.08 0 0  0.1 0 0  0.12 0 0  0.14 0 0  0.16 0 0  0.18 0 0  0.2 0 0  0.22 0 0  0.24 0 0  0.26 0 0  0.28 0 0  0.3 0 0  0.32 0 0  0.34 0 0  0.36 0 0  0.38 0 0  0.4 0 0  0.42 0 0  0.44 0 0  0.46 0 0  0.48 0 0  0.5 0 0  0.52 0 0  0.54 0 0  0.5600000000000001 0 0  0.58 0 0  0.6 0 0  0.62 0 0  0.64 0 0  0.66 0 0  0.68 0 0  0.7 0 0  0.72 0 0  0.74 0 0  0.76 0 0  0.78 0 0  0.8 0 0  0.82 0 0  0.84 0 0  0.86 0 0  0.88 0 0  0.9 0 0  0.92 0 0  0.9399999999999999 0 0  0.96 0 0  0.98 0 0  1 0 0  0 0.02 0  0.02 0.02 0  0.04 0.02 0  0.06 0.02 0  0.08 0.02 0  0.1 0.02 0  0.12 0.02 0  0.14 0.02 0  0.16 0.02 0  0.18 0.02 0  0.2 0.02 0  0.22 0.02 0  0.24 0.02 0  0.26 0.02 0  0.28 0.02 0  0.3 0.02 0  0.32 0.02 0  0.34 0.02 0  0.36 0.02 0  0.38 0.02 0  0.4 0.02 0  0.42 0.02 0  0.44 0.02 0  0.46 0.02 0  0.48 0.02 0  0.5 0.02 0  0.52 0.02 0  0.54 0.02 0  0.5600000000000001 0.02 0  0.58 0.02 0  0.6 0.02 0  0.62 0.02 0  0.64 0.02 0  0.66 0.02 0  0.68 0.02 0  0.7 0.02 0  0.72 0.02 0  0.74 0.02 0  0.76 0.02 0  0.78 0.02 0  0.8 0.02 0  0.82 0.02 0  0.84 0.02 0  0.86 0.02 0  0.88 0.02 0  0.9 0.02 0  0.92 0.02 0  0.9399999999999999 0.02 0  0.96 0.02 0  0.98 0.02 0  1 0.02 0  0 0.04 0  0.02 0.04 0  0.04 0.04 0  0.06 0.04 0  0.08 0.04 0  0.1 0.04 0  0.12 0.04 0  0.14 0.04 0  0.16 0.04 0  0.18 0.04 0  0.2 0.04 0  0.22 0.04 0  0.24 0.04 0  0.26 0.04 0  0.28 0.04 0  0.3 0.04 0  0.32 0.04 0  0.34 0.04 0  0.36 0.04 0  0.38 0.04 0  0.4 0.04 0  0.42 0.04 0  0.44 0.04 0  0.46 0.04 0  0.48 0.04 0  0.5 0.04 0  0.52 0.04 0  0.54 0.04 0  0.5600000000000001 0.04 0  0.58 0.04 0  0.6 0.04 0  0.62 0.04 0  0.64 0.04 0  0.66 0.04 0  0.68 0.04 0  0.7 0.04 0  0.72 0.04 0  0.74 0.04 0  0.76 0.04 0  0.78 0.04 0  0.8 0.04 0  0.82 0.04 0  0.84 0.04 0  0.86 0.04 0  0.88 0.04 0  0.9 0.04 0  0.92 0.04 0  0.9399999999999999 0.04 0  0.96 0.04 0  0.98 0.04 0  1 0.04 0  0 0.06 0  0.02 0.06 0  0.04 0.06 0  0.06 0.06 0  0.08 0.06 0  0.1 0.06 0  0.12 0.06 0  0.14 0.06 0  0.16 0.06 0  0.18 0.06 0  0.2 0.06 0  0.22 0.06 0  0.24 0.06 0  0.26 0.06 0  0.28 0.06 0  0.3 0.06 0  0.32 0.06 0  0.34 0.06 0  0.36 0.06 0  0.38 0.06 0  0.4 0.06 0  0.42 0.06 0  0.44 0.06 0  0.46 0.06 0  0.48 0.06 0  0.5 0.06 0  0.52 0.06 0  0.54 0.06 0  0.5600000000000001 0.06 0  0.58 0.06 0  0.6 0.06 0  0.62 0.06 0  0.64 0.06 0  0.66 0.06 0  0.68 0.06 0  0.7 0.06 0  0.72 0.06 0  0.74 0.06 0  0.76 0.06 0  0.78 0.06 0  0.8 0.06 0  0.82 0.06 0  0.84 0.06 0  0.86 0.06 0  0.88 0.06 0  0.9 0.06 0  0.92 0.06 0  0.9399999999999999 0.06 0  0.96 0.06 0  0.98 0.06 0  1 0.06 0  0 0.08 0  0.02 0.08 0  0.04 0.08 0  0.06 0.08 0  0.08 0.08 0  0.1 0.08 0  0.12 0.08 0  0.14 0.08 0  0.16 0.08 0  0.18 0.08 0  0.2 0.08 0  0.22 0.08 0  0.24 0.08 0  0.26 0.08 0  0.28 0.08 0  0.3 0.08 0  0.32 0.08 0  0.34 0.08 0  0.36 0.08 0  0.38 0.08 0  0.4 0.08 0  0.42 0.08 0  0.44 0.08 0  0.46 0.08 0  0.48 0.08 0  0.5 0.08 0  0.52 0.08 0  0.54 0.08 0  0.5600000000000001 0.08 0  0.58 0.08 0  0.6 0.08 0  0.62 0.08 0  0.64 0.08 0  0.66 0.08 0  0.68 0.08 0  0.7 0.08 0  0.72 0.08 0  0.74 0.08 0  0.76 0.08 0  0.78 0.08 0  0.8 0.08 0  0.82 0.08 0  0.84 0.08 0  0.86 0.08 0  0.88 0.08 0  0.9 0.08 0  0.92 0.08 0  0.9399999999999999 0.08 0  0.96 0.08 0  0.98 0.08 0  1 0.08 0  0 0.1 0  0.02 0.1 0  0.04 0.1 0  0.06 0.1 0  0.08 0.1 0  0.1 0.1 0  0.12 0.1 0  0.14 0.1 0  0.16 0.1 0  0.18 0.1 0  0.2 0.1 0  0.22 0.1 0  0.24 0.1 0  0.26 0.1 0  0.28 0.1 0  0.3 0.1 0  0.32 0.1 0  0.34 0.1 0  0.36 0.1 0  0.38 0.1 0  0.4 0.1 0  0.42 0.1 0  0.44 0.1 0  0.46 0.1 0  0.48 0.1 0  0.5 0.1 0  0.52 0.1 0  0.54 0.1 0  0.5600000000000001 0.1 0  0.58 0.1 0  0.6 0.1 0  0.62 0.1 0  0.64 0.1 0  0.66 0.1 0  0.68 0.1 0  0.7 0.1 0  0.72 0.1 0  0.74 0.1 0  0.76 0.1 0  0.78 0.1 0  0.8 0.1 0  0.82 0.1 0  0.84 0.1 0  0.86 0.1 0  0.88 0.1 0  0.9 0.1 0  0.92 0.1 0  0.9399999999999999 0.1 0  0.96 0.1 0  0.98 0.1 0  1 0.1 0  0 0.12 0  0.02 0.12 0  0.04 0.12 0  0.06 0.12 0  0.08 0.12 0  0.1 0.12 0  0.12 0.12 0  0.14 0.12 0  0.16 0.12 0  0.18 0.12 0  0.2 0.12 0  0.22 0.12 0  0.24 0.12 0  0.26 0.12 0  0.28 0.12 0  0.3 0.12 0  0.32 0.12 0  0.34 0.12 0  0.36 0.12 0  0.38 0.12 0  0.4 0.12 0  0.42 0.12 0  0.44 0.12 0  0.46 0.12 0  0.48 0.12 0  0.5 0.12 0  0.52 0.12 0  0.54 0.12 0  0.5600000000000001 0.12 0  0.58 0.12 0  0.6 0.12 0  0.62 0.12 0  0.64 0.12 0  0.66 0.12 0  0.68 0.12 0  0.7 0.12 0  0.72 0.12 0  0.74 0.12 0  0.76 0.12 0  0.78 0.12 0  0.8 0.12 0  0.82 0.12 0  0.84 0.12 0  0.86 0.12 0  0.88 0.12 0  0.9 0.12 0  0.92 0.12 0  0.9399999999999999 0.12 0  0.96 0.12 0  0.98 0.12 0  1 0.12 0  0 0.14 0  0.02 0.14 0  0.04 0.14 0  0.06 0.14 0  0.08 0.14 0  0.1 0.14 0  0.12 0.14 0  0.14 0.14 0  0.16 0.14 0  0.18 0.14 0  0.2 0.14 0  0.22 0.14 0  0.24 0.14 0  0.26 0.14 0  0.28 0.14 0  0.3 0.14 0  0.32 0.14 0  0.34 0.14 0  0.36 0.14 0  0.38 0.14 0  0.4 0.14 0  0.42 0.14 0  0.44 0.14 0  0.46 0.14 0  0.48 0.14 0  0.5 0.14 0  0.52 0.14 0  0.54 0.14 0  0.5600000000000001 0.14 0  0.58 0.14 0  0.6 0.14 0  0.62 0.14 0  0.64 0.14 0  0.66 0.14 0  0.68 0.14 0  0.7 0.14 0  0.72 0.14 0  0.74 0.14 0  0.76 0.14 0  0.78 0.14 0  0.8 0.14 0  0.82 0.14 0  0.84 0.14 0  0.86 0.14 0  0.88 0.14 0  0.9 0.14 0  0.92 0.14 0  0.9399999999999999 0.14 0  0.96 0.14 0  0.98 0.14 0  1 0.14 0  0 0.16 0  0.02 0.16 0  0.04 0.16 0  0.06 0.16 0  0.08 0.16 0  0.1 0.16 0  0.12 0.16 0  0.14 0.16 0  0.16 0.16 0  0.18 0.16 0  0.2 0.16 0  0.22 0.16 0  0.24 0.16 0  0.26 0.16 0  0.28 0.16 0  0.3 0.16 0  0.32 0.16 0  0.34 0.16 0  0.36 0.16 0  0.38 0.16 0  0.4 0.16 0  0.42 0.16 0  0.44 0.16 0  0.46 0.16 0  0.48 0.16 0  0.5 0.16 0  0.52 0.16 0  0.54 0.16 0  0.5600000000000001 0.16 0  0.58 0.16 0  0.6 0.16 0  0.62 0.16 0  0.64 0.16 0  0.66 0.16 0  0.68 0.16 0  0.7 0.16 0  0.72 0.16 0  0.74 0.16 0  0.76 0.16 0  0.78 0.16 0  0.8 0.16 0  0.82 0.16 0  0.84 0.16 0  0.86 0.16 0  0.88 0.16 0  0.9 0.16 0  0.92 0.16 0  0.9399999999999999 0.16 0  0.96 0.16 0  0.98 0.16 0  1 0.16 0  0 0.18 0  0.02 0.18 0  0.04 0.18 0  0.06 0.18 0  0.08 0.18 0  0.1 0.18 0  0.12 0.18 0  0.14 0.18 0  0.16 0.18 0  0.18 0.18 0  0.2 0.18 0  0.22 0.18 0  0.24 0.18 0  0.26 0.18 0  0.28 0.18 0  0.3 0.18 0  0.32 0.18 0  0.34 0.18 0  0.36 0.18 0  0.38 0.18 0  0.4 0.18 0  0.42 0.18 0  0.44 0.18 0  0.46 0.18 0  0.48 0.18 0  0.5 0.18 0  0.52 0.18 0  0.54 0.18 0  0.5600000000000001 0.18 0  0.58 0.18 0  0.6 0.18 0  0.62 0.18 0  0.64 0.18 0  0.66 0.18 0  0.68 0.18 0  0.7 0.18 0  0.72 0.18 0  0.74 0.18 0  0.76 0.18 0  0.78 0.18 0  0.8 0.18 0  0.82 0.18 0  0.84 0.18 0  0.86 0.18 0  0.88 0.18 0  0.9 0.18 0  0.92 0.18 0  0.9399999999999999 0.18 0  0.96 0.18 0  0.98 0.18 0  1 0.18 0  0 0.2 0  0.02 0.2 0  0.04 0.2 0  0.06 0.2 0  0.08 0.2 0  0.1 0.2 0  0.12 0.2 0  0.14 0.2 0  0.16 0.2 0  0.18 0.2 0  0.2 0.2 0  0.22 0.2 0  0.24 0.2 0  0.26 0.2 0  0.28 0.2 0  0.3 0.2 0  0.32 0.2 0  0.34 0.2 0  0.36 0.2 0  0.38 0.2 0  0.4 0.2 0  0.42 0.2 0  0.44 0.2 0  0.46 0.2 0  0.48 0.2 0  0.5 0.2 0  0.52 0.2 0  0.54 0.2 0  0.5600000000000001 0.2 0  0.58 0.2 0  0.6 0.2 0  0.62 0.2 0  0.64 0.2 0  0.66 0.2 0  0.68 0.2 0  0.7 0.2 0  0.72 0.2 0  0.74 0.2 0  0.76 0.2 0  0.78 0.2 0  0.8 0.2 0  0.82 0.2 0  0.84 0.2 0  0.86 0.2 0  0.88 0.2 0  0.9 0.2 0  0.92 0.2 0  0.9399999999999999 0.2 0  0.96 0.2 0  0.98 0.2 0  1 0.2 0  0 0.22 0  0.02 0.22 0  0.04 0.22 0  0.06 0.22 0  0.08 0.22 0  0.1 0.22 0  0.12 0.22 0  0.14 0.22 0  0.16 0.22 0  0.18 0.22 0  0.2 0.22 0  0.22 0.22 0  0.24 0.22 0  0.26 0.22 0  0.28 0.22 0  0.3 0.22 0  0.32 0.22 0  0.34 0.22 0  0.36 0.22 0  0.38 0.22 0  0.4 0.22 0  0.42 0.22 0  0.44 0.22 0  0.46 0.22 0  0.48 0.22 0  0.5 0.22 0  0.52 0.22 0  0.54 0.22 0  0.5600000000000001 0.22 0  0.58 0.22 0  0.6 0.22 0  0.62 0.22 0  0.64 0.22 0  0.66 0.22 0  0.68 0.22 0  0.7 0.22 0  0.72 0.22 0  0.74 0.22 0  0.76 0.22 0  0.78 0.22 0  0.8 0.22 0  0.82 0.22 0  0.84 0.22 0  0.86 0.22 0  0.88 0.22 0  0.9 0.22 0  0.92 0.22 0  0.9399999999999999 0.22 0  0.96 0.22 0  0.98 0.22 0  1 0.22 0  0 0.24 0  0.02 0.24 0  0.04 0.24 0  0.06 0.24 0  0.08 0.24 0  0.1 0.24 0  0.12 0.24 0  0.14 0.24 0  0.16 0.24 0  0.18 0.24 0  0.2 0.24 0  0.22 0.24 0  0.24 0.24 0  0.26 0.24 0  0.28 0.24 0  0.3 0.24 0  0.32 0.24 0  0.34 0.24 0  0.36 0.24 0  0.38 0.24 0  0.4 0.24 0  0.42 0.24 0  0.44 0.24 0  0.46 0.24 0  0.48 0.24 0  0.5 0.24 0  0.52 0.24 0  0.54 0.24 0  0.5600000000000001 0.24 0  0.58 0.24 0  0.6 0.24 0  0.62 0.24 0  0.64 0.24 0  0.66 0.24 0  0.68 0.24 0  0.7 0.24 0  0.72 0.24 0  0.74 0.24 0  0.76 0.24 0  0.78 0.24 0  0.8 0.24 0  0.82 0.24 0  0.84 0.24 0  0.86 0.24 0  0.88 0.24 0  0.9 0.24 0  0.92 0.24 0  0.9399999999999999 0.24 0  0.96 0.24 0  0.98 0.24 0  1 0.24 0  0 0.26 0  0.02 0.26 0  0.04 0.26 0  0.06 0.26 0  0.08 0.26 0  0.1 0.26 0  0.12 0.26 0  0.14 0.26 0  0.16 0.26 0  0.18 0.26 0  0.2 0.26 0  0.22 0.26 0  0.24 0.26 0  0.26 0.26 0  0.28 0.26 0  0.3 0.26 0  0.32 0.26 0  0.34 0.26 0  0.36 0.26 0  0.38 0.26 0  0.4 0.26 0  0.42 0.26 0  0.44 0.26 0  0.46 0.26 0  0.48 0.26 0  0.5 0.26 0  0.52 0.26 0  0.54 0.26 0  0.5600000000000001 0.26 0  0.58 0.26 0  0.6 0.26 0  0.62 0.26 0  0.64 0.26 0  0.66 0.26 0  0.68 0.26 0  0.7 0.26 0  0.72 0.26 0  0.74 0.26 0  0.76 0.26 0  0.78 0.26 0  0.8 0.26 0  0.82 0.26 0  0.84 0.26 0  0.86 0.26 0  0.88 0.26 0  0.9 0.26 0  0.92 0.26 0  0.9399999999999999 0.26 0  0.96 0.26 0  0.98 0.26 0  1 0.26 0  0 0.28 0  0.02 0.28 0  0.04 0.28 0  0.06 0.28 0  0.08 0.28 0  0.1 0.28 0  0.12 0.28 0  0.14 0.28 0  0.16 0.28 0  0.18 0.28 0  0.2 0.28 0  0.22 0.28 0  0.24 0.28 0  0.26 0.28 0  0.28 0.28 0  0.3 0.28 0  0.32 0.28 0  0.34 0.28 0  0.36 0.28 0  0.38 0.28 0  0.4 0.28 0  0.42 0.28 0  0.44 0.28 0  0.46 0.28 0  0.48 0.28 0  0.5 0.28 0  0.52 0.28 0  0.54 0.28 0  0.5600000000000001 0.28 0  0.58 0.28 0  0.6 0.28 0  0.62 0.28 0  0.64 0.28 0  0.66 0.28 0  0.68 0.28 0  0.7 0.28 0  0.72 0.28 0  0.74 0.28 0  0.76 0.28 0  0.78 0.28 0  0.8 0.28 0  0.82 0.28 0  0.84 0.28 0  0.86 0.28
[...]
<PointData  Scalars="f_12"> 
<DataArray  type="Float64"  Name="f_12"  format="ascii">1.9229907324915373e-18  1.4358559007520337e-19  -2.4158570343205248e-18  4.2502943386321940e-18  1.0854762913402171e-17  1.8582887741150652e-17  -2.9264482191876893e-18  1.8044871859227642e-18  -1.0902252532467965e-17  -1.2296644949306742e-17  1.4247864268375449e-17  2.5365778501841852e-17  1.0452846182387727e-17  -2.8570354939612728e-17  2.5317488282916435e-17  4.6928411033144451e-18  6.4899187133105178e-18  2.6602970758717293e-18  1.4137710634297613e-17  1.5377708687875068e-18  -6.9272243506498728e-18  1.1923852610213114e-17  5.6505755637055550e-18  -7.7824319934309203e-18  -1.8175889980344644e-17  2.5584235471372133e-17  5.0785132242360379e-17  -5.8103209217270835e-18  -3.9091635841448431e-17  4.4425243804851349e-17  -3.3297497322696215e-17  1.0882111384698720e-17  5.4070772029734296e-17  -3.7933402294209575e-18  1.9070453304382889e-17  5.8011036040130249e-18  4.0640682191929374e-17  -6.8501446394659158e-18  6.1140443265139254e-17  2.3016330025185664e-17  -5.7986021626378673e-17  -1.7433620142590795e-17  -3.4714933593922151e-17  5.3352861623003718e-17  2.7505365211990947e-17  -2.6152622139900391e-17  -1.6084141375670110e-17  1.1501139351184058e-17  -2.3713629644248082e-17  8.7496537406353147e-18  -5.5549919760367239e-18  -3.8474338888952169e-19  4.2242343341646844e-02  8.4125208574318613e-02  1.2536694078658922e-01  1.6568771902624149e-01  2.0482260859993601e-01  2.4253059172180283e-01  2.7860225423706453e-01  3.1286679321505712e-01  3.4519832296891800e-01  3.7552114627003208e-01  4.0381348355393598e-01  4.3010907104300083e-01  4.5449606320067498e-01  4.7711283352090222e-01  4.9814057541494056e-01  5.1779304224445233e-01  5.3630426339485893e-01  5.5391551685477436e-01  5.7086309706204119e-01  5.8736839251999040e-01  6.0363146259784117e-01  6.1982874782097241e-01  6.3611488850414444e-01  6.5262799418172146e-01  6.6949719604990054e-01  6.8685095115384598e-01  7.0482429558679194e-01  7.2356297575990480e-01  7.4322206929907209e-01  7.6395636903412623e-01  7.8589960123580793e-01  8.0912981030868136e-01  8.3361942456651883e-01  8.5917101809149488e-01  8.8534360224578734e-01  9.1137870962143441e-01  9.3613904915901003e-01  9.5807303337026406e-01  9.7521426885561446e-01  9.8521632528392833e-01  9.8541271337391156e-01  9.7288457077958501e-01  9.4451732762068796e-01  8.9703224370473766e-01  8.2698601632451407e-01  7.3073829120956457e-01  6.0439098357654741e-01  4.4370442103047375e-01  2.4399344546652804e-01  2.3603302114381285e-18  2.8685902660170943e-18  8.4125208574318600e-02  1.6755207922523976e-01  2.4968739234930060e-01  3.2995547900693356e-01  4.0781466929608212e-01  4.8277276492267424e-01  5.5440181600942484e-01  6.2235221171308996e-01  6.8636566380239972e-01  7.4628627880902498e-01  8.0206861083593628e-01  8.5378140944975123e-01  9.0160579913172612e-01  9.4582693004620599e-01  9.8681877646696237e-01  1.0250227042132922e+00  1.0609215402121530e+00  1.0950118961724613e+00  1.1277781121916870e+00  1.1596711550132752e+00  1.1910950830524292e+00  1.2224024523343224e+00  1.2538985849691644e+00  1.2858532598608206e+00  1.3185173386715165e+00  1.3521411667698466e+00  1.3869911341759469e+00  1.4233602976303736e+00  1.4615683017537282e+00  1.5019450060339496e+00  1.5447914946046850e+00  1.5903122138363555e+00  1.6385139567532032e+00  1.6890724211061821e+00  1.7411754203767817e+00  1.7933622155006781e+00  1.8433875492703626e+00  1.8881417430478831e+00  1.9236496179638918e+00  1.9451504758982097e+00  1.9472360279827743e+00  1.9240050332626937e+00  1.8691913122896828e+00  1.7762342107072684e+00  1.6382785758698848e+00  1.4481064799781338e+00  1.1980114998404938e+00  8.7962860478767613e-01  4.8373075330688131e-01  1.1770860055041672e-17  1.8943293256780644e-18  1.2536694078658919e-01  2.4968739234930060e-01  3.7203402954795467e-01  4.9151286783302750e-01  6.0728444127659209e-01  7.1858559664274857e-01  8.2475148331388204e-01  9.2523725467782547e-01  1.0196386129092578e+00  1.1077098383487340e+00  1.1893774656172014e+00  1.2647474221132058e+00  1.3341033842416652e+00  1.3978945050301743e+00  1.4567116600186665e+00  1.5112529558616992e+00  1.5622812341663717e+00  1.6105782111109284e+00  1.6569011027923524e+00  1.7019475931854111e+00  1.7463337020555252e+00  1.7905868841515424e+00  1.8351541356319769e+00  1.8804225633327742e+00  1.9267482279448693e+00  1.9744882416734051e+00  2.0240307096329335e+00  2.0758165546182772e+00  2.1303462457337878e+00  2.1881628596720253e+00  2.2498009540766084e+00  2.3156895066795342e+00  2.3859988227603521e+00  2.4604285329400724e+00  2.5379480151757274e+00  2.6165202477966147e+00  2.6928598814264411e+00  2.7622863814358567e+00  2.8187206366971642e+00  2.8548340063950488e+00  2.8623063849166397e+00  2.8321122169343016e+00  2.7547519429662857e+00  2.6203755049528556e+00  2.4187816367197854e+00  2.1393041815211595e+00  1.7706095299287554e+00  1.3004305329834089e+00  7.1525739697434354e-01  8.2849859006471222e-18  -9.5436911954902626e-18  1.6568771902624149e-01  3.2995547900693351e-01  4.9151286783302744e-01  6.4911731666843719e-01  8.0160136512519953e-01  9.4790141677085904e-01  1.0870876199005077e+00  1.2183942082378907e+00  1.3412490871041338e+00  1.4553007337608204e+00  1.5604397054993036e+00  1.6568113814393317e+00  1.7448162514472101e+00  1.8250944263323554e+00  1.8984923887218503e+00  1.9660124731221966e+00  2.0287489034059365e+00  2.0878176347856856e+00  2.1442895566036739e+00  2.1991367585788635e+00  2.2531993012500657e+00  2.3071761130107298e+00  2.3616394059569297e+00  2.4170682765012379e+00  2.4738947710034904e+00  2.5325550806835762e+00  2.5935387981303455e+00  2.6574288633984318e+00  2.7249235564777705e+00  2.7968293284301233e+00  2.8740090184854004e+00  2.9572653435852945e+00  3.0471381908468338e+00  3.1436022763923028e+00  3.2456733653820589e+00  3.3509655863115198e+00  3.4552826615726606e+00  3.5523560202708842e+00  3.6338308531955419e+00  3.6895287821138716e+00  3.7079085982789106e+00  3.6765678569795464e+00  3.5826329009314204e+00  3.4129534630911289e+00  3.1540917803109432e+00  2.7921411563647340e+00  2.3124230055976214e+00  1.6991062408493682e+00  9.3478024529623494e-01  4.2324805991870784e-18  1.2330883994597749e-17  2.0482260859993595e-01  4.0781466929608201e-01  6.0728444127659198e-01  8.0160136512519942e-01  9.8923003783800456e-01  1.1687665814923474e+00  1.3389773371003535e+00  1.4988392758487141e+00  1.6475807245755301e+00  1.7847199500530209e+00  1.9100979101842661e+00  2.0239002456760664e+00  2.1266627060232839e+00  2.2192542208472767e+00  2.3028333924646955e+00  2.3787777874481386e+00  2.4485908953756388e+00  2.5137977464391792e+00  2.5758446431548152e+00  2.6360189884392198e+00  2.6954011079339564e+00  2.7548533982388306e+00  2.8150453006840341e+00  2.8765066217094297e+00  2.9396981580861206e+00  3.0050890656701874e+00  3.0732327927376821e+00  3.1448337343331021e+00  3.2207955680479179e+00  3.3022390836461528e+00  3.3904695182890694e+00  3.4868616029804786e+00  3.5926201008927690e+00  3.7083782882929444e+00  3.8336268158756766e+00  3.9660211957901246e+00  4.1006930867775004e+00  4.2297726769533668e+00  4.3423364806723290e+00  4.4248637527023957e+00  4.4620591794528099e+00  4.4377248357882104e+00  4.3353950807892012e+00  4.1386147248388001e+00  3.8308853340354947e+00  3.3953692584964452e+00  2.8144447106095574e+00  2.0691818523222105e+00  1.1387820516752480e+00  -3.5236495876335802e-17  -7.6832606456846624e-18  2.4253059172180280e-01  4.8277276492267412e-01  7.1858559664274868e-01  9.4790141677085915e-01  1.1687665814923474e+00  1.3793858846532889e+00  1.5781709984304060e+00  1.7637926363355187e+00  1.9352350904200661e+00  2.0918503336336678e+00  2.2334069946869275e+00  2.3601273600993635e+00  2.4727035730214095e+00  2.5722832281229264e+00  2.6604158664848718e+00  2.7389567693150267e+00  2.8099333576685690e+00  2.8753906349556826e+00  2.9372410057510518e+00  2.9971453812628499e+00  3.0564444327555425e+00  3.1161473077707522e+00  3.1769745544297838e+00  3.2394421925827599e+00  3.3039674945808226e+00  3.3709807532144151e+00  3.4410357594004104e+00  3.5149121722270604e+00  3.5937022644210783e+00  3.6788734961719740e+00  3.7722863686862573e+00  3.8761226783438980e+00  3.9926461054945710e+00  4.1237081990404763e+00  4.2699507219372936e+00  4.4297373787327317e+00  4.5979775011220916e+00  4.7652187075382866e+00  4.9174744359823013e+00  5.0370185323523469e+00  5.1038896912325127e+00  5.0974232523453011e+00  4.9972538305430589e+00  4.7836552179054088e+00  4.4373571212479668e+00  3.9390440219673430e+00  3.2687010311343014e+00  2.4049074059256830e+00  1.3241256663483310e+00  4.0331870362217616e-17  6.5193205440056785e-18  2.7860225423706453e-01  5.5440181600942517e-01  8.2475148331388271e-01  1.0870876199005080e+00  1.3389773371003546e+00  1.5781709984304066e+00  1.8026611153524241e+00  2.0107479561199342e+00  2.2011109780534182e+00  2.3728833256264577e+00  2.5257239518188772e+00  2.6598784139283724e+00  2.7762154614120749e+00  2.8762233234992602e+00  2.9619493463235713e+00  3.0358724108802964e+00  3.1007116997050908e+00  3.1591959841005623e+00  3.2138360250211648e+00  3.2667476048843871e+00  3.3195545459323372e+00  3.3733800455101832e+00  3.4289205419775777e+00  3.4865800048411124e+00  3.5466266835886739e+00  3.6093466577625208e+00  3.6751957559706034e+00  3.7449451726978817e+00  3.8198150806228819e+00  3.9016022635026157e+00  3.9927929461999350e+00  4.0966116703170830e+00  4.2168679603527517e+00  4.3574176944700023e+00  4.5211046273376869e+00  4.7081525915473641e+00  4.9141238325168430e+00  5.1281162023420590e+00  5.3322396464259132e+00  5.5030088772344872e+00  5.6142157623151379e+00  5.6396816182782121e+00  5.5547651902909596e+00  5.3366284156189030e+00  4.9637216013092980e+00  4.4149152797662596e+00  3.6685391760816173e+00  2.7014484249174471e+00  1.4881525174616645e+00  9.3990617235539398e-18  6.6359715602753010e-18  3.1286679321505723e-01  6.2235221171309030e-01  9.2523725467782592e-01  1.2183942082378918e+00  1.4988392758487159e+00  1.7637926363355205e+00  2.0107479561199360e+00  2.2375527549772145e+00  2.4424998311842581e+00  2.6244278348749717e+00  2.7828255945608467e+00  2.9179295477653446e+00  3.0307965967661192e+00  3.1233270419848886e+00  3.1982073536594826e+00  3.2587469192244698e+00  3.3086041843336389e+00  3.3514363572649142e+00  3.3905461152653076e+00  3.4286165983778760e+00  3.4675774491803915e+00  3.5086043442367134e+00  3.5522458783952962e+00  3.5986461403151178e+00  3.6477782588898626e+00  3.6996383558367429e+00  3.7544437339935355e+00  3.8128275254997828e+00  3.8760131124849839e+00  3.9460154496064281e+00  4.0258976145002388e+00  4.1200778653155385e+00  4.2344444145414499e+00  4.3759052948128749e+00  4.5510967837572709e+00  4.7641188258502787e+00  5.0129539303874600e+00  5.2857282315235921e+00  5.5592015655328346e+00  5.8011981875140446e+00  5.9764518448112804e+00  6.0517082009806780e+00  5.9977411236330145e+00  5.7890870134046422e+00  5.4027748131413338e+00  4.8168336662029851e+00  4.0089080179346599e+00  2.9550644545969753e+00  1.6287713930779617e+00  -6.1586798695225261e-17  -2.3581488432770368e-18  3.4519832296891850e-01  6.8636566380240038e-01  1.0196386129092594e+00  1.3412490871041358e+00  1.6475807245755325e+00  1.9352350904200690e+00  2.2011109780534199e+00  2.4424998311842607e+00  2.6571994890718056e+00  2.8436465306566880e+00  3.0010636096274701e+00  3.1296111739355119e+00  3.2305217007321612e+00  3.3061790440345202e+00  3.3600894942780517e+00  3.3966865195282003e+00  3.4209390585745658e+00  3.4378071302854951e+00  3.4516705954589906e+00  3.4659326079588095e+00  3.4828457597158726e+00  3.5035257561180999e+00  3.5281630265582269e+00  3.5564185140218010e+00  3.5877848685766609e+00  3.6217772660942082e+00  3.6581858944578745e+00  3.6973364887665374e+00  3.7402584751816068e+00  3.7889315372149093e+00  3.8466902634796538e+00  3.9190315060732752e+00  4.0143687446760801e+00  4.1439452602822602e+00  4.3204387450444637e+00  4.5553808604490174e+00  4.8528756803467710e+00  5.2015367581922449e+00  5.5702806585592279e+00  5.9123264743559796e+00  6.1781772550615068e+00  6.3254231836898702e+00  6.3204682282257085e+00  6.1364603083929401e+00  5.7504880039184636e+00  5.1411374674197514e+00  4.2866025077228818e+00  3.1632543861672766e+00  1.7445279579301463e+00  -1.1522161948703287e-16  1.9292994091458330e-17  3.7552114627003252e-01  7.4628627880902632e-01  1.1077098383487358e+00  1.4553007337608230e+00  1.7847199500530249e+00  2.0918503336336713e+00  2.3728833256264625e+00  2.6244278348749766e+00  2.8436465306566898e+00  3.0284239430183364e+00  3.1775676272195605e+00  3.2910360482706555e+00  3.3701713504070301e+00  3.4178879760314933e+00  3.4387291824996735e+00  3.4386687541541776e+00  3.4245563318843613e+00  3.4032517049300752e+00  3.3806328670794863e+00  3.3610190176187986e+00  3.3469914626814772e+00  3.3394108950635966e+00  3.3377276605590986e+00  3.3407699030588582e+00  3.3473686147024688e+00  3.3563136935242310e+00  3.3667147069252321e+00  3.3784280182725102e+00  3.3920479723648556e+00  3.4091190226189800e+00  3.4324436177656215e+00  3.4678450037438946e+00  3.5263482442008085e+00  3.6249221456422340e+00  3.7848537256977051e+00  4.0313644008594123e+00  4.3827045106533271e+00  4.8321261754009219e+00  5.3366317892876314e+00  5.8217721051569384e+00  6.2139333835490884e+00  6.4597491605450275e+00  6.5232648071213246e+00  6.3790058112187333e+00  6.0065512490188224e+00  5.3869499745449021e+00  4.5004220652812217e+00  3.3248382894829147e+00  1.8346409793126113e+00  6.2326695829036381e-17  -1.1989279912245207e-17  4.0381348355393648e-01  8.0206861083593783e-01  1.1893774656172040e+00  1.5604397054993069e+00  1.9100979101842710e+00  2.2334069946869319e+00  2.5257239518188821e+00  2.7828255945608529e+00  3.0010636096274741e+00  3.1775676272195628e+00  3.3105068522261187e+00  3.3994160096032449e+00  3.4455754448465532e+00  3.4523963572062133e+00  3.4256844461234923e+00  3.3735387271887070e+00  3.3055868091272500e+00  3.2316112604271954e+00  3.1595942207060985e+00  3.0949759238477812e+00  3.0406713607805003e+00  2.9969945389999038e+00  2.9618828849280798e+00  2.9327193102812221e+00  2.9077276277251469e+00  2.8846206877291860e+00  2.8614082315030425e+00  2.8374932733122478e+00  2.8128296620507047e+00  2.7882250296354800e+00  2.7641926781935728e+00  2.7447061545036426e+00  2.7426632495174945e+00  2.7829543557737670e+00  2.8979913834533582e+00  3.1330896233681149e+00  3.5354444032868777e+00  4.1206372039987507e+00  4.8292572397009446e+00  5.5248891870684824e+00  6.0902930197466283e+00  6.4638943533252986e+00  6.6142450731580436e+00  6.5226335678901917e+00  6.1747006186384699e+00  5.5562747405577602e+00  4.6511747240644938e+00  3.4399384966001070e+00  1.8989890908864977e+00  2.7235442364518668e-17  9.6027523726771954e-18  4.3010907104300161e-01  8.5378140944975256e-01  1.2647474221132085e+00  1.6568113814393353e+00  2.0239002456760722e+00  2.3601273600993693e+00  2.6598784139283795e+00  2.9179295477653509e+00  3.1296111739355177e+00  3.2910360482706595e+00  3.3994160096032462e+00  3.4534962870311308e+00  3.4541317530612012e+00  3.4049948377573478e+00  3.3132883363992334e+00  3.1900382281882660e+00  3.0490619984703851e+00  2.9050575429176830e+00  2.7688866730746509e+00  2.6471237025959642e+00  2.5431179798369032e+00  2.4564327846359868e+00  2.3816870052544821e+00  2.3134363396658104e+00  2.2506605345360287e+00  2.1909744705159029e+00  2.1302422793050373e+00  2.0678386437747966e+00  2.0024671909174225e+00  1.9342464430588291e+00  1.8630753780236908e+00  1.7928395040371459e+00  1.7363378635148079e+00  1.7207300734829261e+00  1.7886716791539381e+00  2.0002180804563934e+00  2.4242150496177177e+00  3.1110067967374615e+00  4.0410065228812817e+00  5.0404126044752369e+00  5.8347179290790834e+00  6.3613583966077245e+00  6.6107074732388904e+00  6.5791560089113599e+00  6.2625587934640148e+00  5.6537428019449925e+00  4.7414536077868634e+00  3.5098256201646745e+00  1.9380347738675554e+00  -6.5950081271158472e-17  2.3426939592191698e-17  4.5449606320067565e-01  9.0160579913172767e-01  1.3341033842416679e+00  1.7448162514472139e+00  2.1266627060232883e+00  2.4727035730214153e+00  2.7762154614120829e+00  3.0307965967661268e+00  3.2305217007321678e+00  3.3701713504070323e+00  3.4455754448465536e+00  3.4541317530612026e+00  3.3955884851338478e+00  3.2732009972387144e+00  3.0953172474858883e+00  2.8769668493245635e+00  2.6381143510313967e+00  2.4031334661885895e+00  2.1865272409613006e+00  1.9999482489578859e+00  1.8444461283491196e+00  1.7180231718673795e+00  1.6141591833855098e+00  1.5250976555891609e+00  1.4459285047959438e+00  1.3732621046232756e+00  1.3032850089352366e+00  1.2329970149990475e+00  1.1594110909715760e+00  1.0800716443998757e+00  9.9381936280370387e-01  9.0394948172201162e-01  8.2296291336690341e-01  7.7824095705140883e-01  8.1672921996851444e-01  1.0071565151337989e+00  1.4329866594802843e+00  2.1675710936208676e+00  3.2223131297678478e+00  4.4593006104090165e+00  5.5085053657070695e+00  6.1924218050319260e+00  6.5386631611945480e+00  6.5652289615638733e+00  6.2806681876896668e+00  5.6858842037836173e+00  4.7751405528744533e+00  3.5366163039238652e+00  1.9526828383369745e+00  -1.0334137654063099e-16  -6.9158323005715706e-18  4.7711283352090300e-01  9.4582693004620810e-01  1.3978945050301772e+00  1.8250944263323592e+00  2.2192542208472821e+00  2.5722832281229318e+00  2.8762233234992669e+00  3.1233270419848944e+00  3.3061790440345242e+00  3.4178879760314973e+00  3.4523963572062168e+00  3.4049948377573522e+00  3.2732009972387184e+00  3.0583096289683795e+00  2.7682744298411230e+00  2.4239297550395977e+00  2.0632144961809820e+00  1.7328231107915275e+00  1.4620231403149941e+00  1.2521981631536179e+00  1.0942424981981185e+00  9.7524770682915252e-01  8.8309967280014678e-01  8.0815400761552103e-01  7.4382754290684028e-01  6.8550901777577788e-01  6.2923849085275785e-01  5.7129652629532224e-01  5.0782713219526066e-01  4.3522446076351562e-01  3.5147591655360944e-01  2.5921657838005263e-01  1.7052801902414122e-01  1.1304460251480668e-01  1.3591594629464510e-01  3.1276279271767687e-01  7.3558734218389754e-01  1.4909155065097945e+00  2.6078539022938387e+00  3.9691084751678281e+00  5.2016647202532802e+00  6.0076160117735800e+00  6.4281245290050784e+00  6.4992983000111062e+00  6.2405649276389878e+00  5.6599253130161093e+00  4.7566705083003678e+00  3.5228522042010137e+00  1.9440891399423668e+00  -4.8243948152944464e-18  -1.6889272816709233e-17  4.9814057541494156e-01  9.8681877646696459e-01  1.4567116600186687e+00  1.8984923887218541e+00  2.3028333924646991e+00  2.6604158664848772e+00  2.9619493463235784e+00  3.1982073536594871e+00  3.3600894942780579e+00  3.4387291824996802e+00  3.4256844461234990e+00  3.3132883363992414e+00  3.0953172474858968e+00  2.7682744298411301e+00  2.3396800671021514e+00  1.8590196098949352e+00  1.4151775797522379e+00  1.0592069028109925e+00  7.9862027746817110e-01  6.1741578844273026e-01  4.9420916473399462e-01  4.0967659443380766e-01  3.4910368589002533e-01  3.0238623599318265e-01  2.6302314772950319e-01  2.2662414609023729e-01  1.8956133455819110e-01  1.4817593191446776e-01  9.8473548632819971e-02  3.6590656860469487e-02  -3.9642290693220755e-02  -1.2757559571811880e-01  -2.1485601294121828e-01  -2.7311753980422143e-01  -2.5165962929402058e-01  -7.4324187712053041e-02  3.5446683328393674e-01  1.1257080875513479e+00  2.2732853150509023e+00  3.6840671224431256e+00  4.9877822072179621e+00  5.8489386856275836e+00  6.3043060102227635e+00  6.3970764198671874e+00  6.1522922943310494e+00  5.5823637583527068e+00  4.6902056206623994e+00  3.4710421678791321e+00  1.9134557804287531e+00  -7.3741324135582847e-18  -1.9100653437504349e-17  5.1779304224445322e-01  1.0250227042132944e+00  1.5112529558617025e+00  1.9660124731222002e+00  2.3787777874481435e+00  2.7389567693150321e+00  3.0358724108803012e+00  3.2587469192244751e+00  3.3966865195282092e+00  3.4386687541541874e+00  3.3735387271887194e+00  3.