<?xml version="1.0"?>
<VTKFile type="UnstructuredGrid"  version="0.1"  >
<UnstructuredGrid>
<Piece  NumberOfPoints="2601" NumberOfCells="5000">
<Points>
<DataArray  type="Float64"  NumberOfComponents="3"  format="ascii">0 0 0  0.02 0 0  0.04 0 0  0.06 0 0  0.08 0 0  0.1 0 0  0.12 0 0  0.14 0 0  0.16 0 0  0.18 0 0  0.2 0 0  0.22 0 0  0.24 0 0  0.26 0 0  0.28 0 0  0.3 0 0  0.32 0 0  0.34 0 0  0.36 0 0  0.38 0 0  0.4 0 0  0.42 0 0  0.44 0 0  0.46 0 0  0.48 0 0  0.5 0 0  0.52 0 0  0.54 0 0  0.5600000000000001 0 0  0.58 0 0  0.6 0 0  0.62 0 0  0.64 0 0  0.66 0 0  0.68 0 0  0.7 0 0  0.72 0 0  0.74 0 0  0.76 0 0  0.78 0 0  0.8 0 0  0.82 0 0  0.84 0 0  0.86 0 0  0.88 0 0  0.9 0 0  0.92 0 0  0.9399999999999999 0 0  0.96 0 0  0.98 0 0  1 0 0  0 0.02 0  0.02 0.02 0  0.04 0.02 0  0.06 0.02 0  0.08 0.02 0  0.1 0.02 0  0.12 0.02 0  0.14 0.02 0  0.16 0.02 0  0.18 0.02 0  0.2 0.02 0  0.22 0.02 0  0.24 0.02 0  0.26 0.02 0  0.28 0.02 0  0.3 0.02 0  0.32 0.02 0  0.34 0.02 0  0.36 0.02 0  0.38 0.02 0  0.4 0.02 0  0.42 0.02 0  0.44 0.02 0  0.46 0.02 0  0.48 0.02 0  0.5 0.02 0  0.52 0.02 0  0.54 0.02 0  0.5600000000000001 0.02 0  0.58 0.02 0  0.6 0.02 0  0.62 0.02 0  0.64 0.02 0  0.66 0.02 0  0.68 0.02 0  0.7 0.02 0  0.72 0.02 0  0.74 0.02 0  0.76 0.02 0  0.78 0.02 0  0.8 0.02 0  0.82 0.02 0  0.84 0.02 0  0.86 0.02 0  0.88 0.02 0  0.9 0.02 0  0.92 0.02 0  0.9399999999999999 0.02 0  0.96 0.02 0  0.98 0.02 0  1 0.02 0  0 0.04 0  0.02 0.04 0  0.04 0.04 0  0.06 0.04 0  0.08 0.04 0  0.1 0.04 0  0.12 0.04 0  0.14 0.04 0  0.16 0.04 0  0.18 0.04 0  0.2 0.04 0  0.22 0.04 0  0.24 0.04 0  0.26 0.04 0  0.28 0.04 0  0.3 0.04 0  0.32 0.04 0  0.34 0.04 0  0.36 0.04 0  0.38 0.04 0  0.4 0.04 0  0.42 0.04 0  0.44 0.04 0  0.46 0.04 0  0.48 0.04 0  0.5 0.04 0  0.52 0.04 0  0.54 0.04 0  0.5600000000000001 0.04 0  0.58 0.04 0  0.6 0.04 0  0.62 0.04 0  0.64 0.04 0  0.66 0.04 0  0.68 0.04 0  0.7 0.04 0  0.72 0.04 0  0.74 0.04 0  0.76 0.04 0  0.78 0.04 0  0.8 0.04 0  0.82 0.04 0  0.84 0.04 0  0.86 0.04 0  0.88 0.04 0  0.9 0.04 0  0.92 0.04 0  0.9399999999999999 0.04 0  0.96 0.04 0  0.98 0.04 0  1 0.04 0  0 0.06 0  0.02 0.06 0  0.04 0.06 0  0.06 0.06 0  0.08 0.06 0  0.1 0.06 0  0.12 0.06 0  0.14 0.06 0  0.16 0.06 0  0.18 0.06 0  0.2 0.06 0  0.22 0.06 0  0.24 0.06 0  0.26 0.06 0  0.28 0.06 0  0.3 0.06 0  0.32 0.06 0  0.34 0.06 0  0.36 0.06 0  0.38 0.06 0  0.4 0.06 0  0.42 0.06 0  0.44 0.06 0  0.46 0.06 0  0.48 0.06 0  0.5 0.06 0  0.52 0.06 0  0.54 0.06 0  0.5600000000000001 0.06 0  0.58 0.06 0  0.6 0.06 0  0.62 0.06 0  0.64 0.06 0  0.66 0.06 0  0.68 0.06 0  0.7 0.06 0  0.72 0.06 0  0.74 0.06 0  0.76 0.06 0  0.78 0.06 0  0.8 0.06 0  0.82 0.06 0  0.84 0.06 0  0.86 0.06 0  0.88 0.06 0  0.9 0.06 0  0.92 0.06 0  0.9399999999999999 0.06 0  0.96 0.06 0  0.98 0.06 0  1 0.06 0  0 0.08 0  0.02 0.08 0  0.04 0.08 0  0.06 0.08 0  0.08 0.08 0  0.1 0.08 0  0.12 0.08 0  0.14 0.08 0  0.16 0.08 0  0.18 0.08 0  0.2 0.08 0  0.22 0.08 0  0.24 0.08 0  0.26 0.08 0  0.28 0.08 0  0.3 0.08 0  0.32 0.08 0  0.34 0.08 0  0.36 0.08 0  0.38 0.08 0  0.4 0.08 0  0.42 0.08 0  0.44 0.08 0  0.46 0.08 0  0.48 0.08 0  0.5 0.08 0  0.52 0.08 0  0.54 0.08 0  0.5600000000000001 0.08 0  0.58 0.08 0  0.6 0.08 0  0.62 0.08 0  0.64 0.08 0  0.66 0.08 0  0.68 0.08 0  0.7 0.08 0  0.72 0.08 0  0.74 0.08 0  0.76 0.08 0  0.78 0.08 0  0.8 0.08 0  0.82 0.08 0  0.84 0.08 0  0.86 0.08 0  0.88 0.08 0  0.9 0.08 0  0.92 0.08 0  0.9399999999999999 0.08 0  0.96 0.08 0  0.98 0.08 0  1 0.08 0  0 0.1 0  0.02 0.1 0  0.04 0.1 0  0.06 0.1 0  0.08 0.1 0  0.1 0.1 0  0.12 0.1 0  0.14 0.1 0  0.16 0.1 0  0.18 0.1 0  0.2 0.1 0  0.22 0.1 0  0.24 0.1 0  0.26 0.1 0  0.28 0.1 0  0.3 0.1 0  0.32 0.1 0  0.34 0.1 0  0.36 0.1 0  0.38 0.1 0  0.4 0.1 0  0.42 0.1 0  0.44 0.1 0  0.46 0.1 0  0.48 0.1 0  0.5 0.1 0  0.52 0.1 0  0.54 0.1 0  0.5600000000000001 0.1 0  0.58 0.1 0  0.6 0.1 0  0.62 0.1 0  0.64 0.1 0  0.66 0.1 0  0.68 0.1 0  0.7 0.1 0  0.72 0.1 0  0.74 0.1 0  0.76 0.1 0  0.78 0.1 0  0.8 0.1 0  0.82 0.1 0  0.84 0.1 0  0.86 0.1 0  0.88 0.1 0  0.9 0.1 0  0.92 0.1 0  0.9399999999999999 0.1 0  0.96 0.1 0  0.98 0.1 0  1 0.1 0  0 0.12 0  0.02 0.12 0  0.04 0.12 0  0.06 0.12 0  0.08 0.12 0  0.1 0.12 0  0.12 0.12 0  0.14 0.12 0  0.16 0.12 0  0.18 0.12 0  0.2 0.12 0  0.22 0.12 0  0.24 0.12 0  0.26 0.12 0  0.28 0.12 0  0.3 0.12 0  0.32 0.12 0  0.34 0.12 0  0.36 0.12 0  0.38 0.12 0  0.4 0.12 0  0.42 0.12 0  0.44 0.12 0  0.46 0.12 0  0.48 0.12 0  0.5 0.12 0  0.52 0.12 0  0.54 0.12 0  0.5600000000000001 0.12 0  0.58 0.12 0  0.6 0.12 0  0.62 0.12 0  0.64 0.12 0  0.66 0.12 0  0.68 0.12 0  0.7 0.12 0  0.72 0.12 0  0.74 0.12 0  0.76 0.12 0  0.78 0.12 0  0.8 0.12 0  0.82 0.12 0  0.84 0.12 0  0.86 0.12 0  0.88 0.12 0  0.9 0.12 0  0.92 0.12 0  0.9399999999999999 0.12 0  0.96 0.12 0  0.98 0.12 0  1 0.12 0  0 0.14 0  0.02 0.14 0  0.04 0.14 0  0.06 0.14 0  0.08 0.14 0  0.1 0.14 0  0.12 0.14 0  0.14 0.14 0  0.16 0.14 0  0.18 0.14 0  0.2 0.14 0  0.22 0.14 0  0.24 0.14 0  0.26 0.14 0  0.28 0.14 0  0.3 0.14 0  0.32 0.14 0  0.34 0.14 0  0.36 0.14 0  0.38 0.14 0  0.4 0.14 0  0.42 0.14 0  0.44 0.14 0  0.46 0.14 0  0.48 0.14 0  0.5 0.14 0  0.52 0.14 0  0.54 0.14 0  0.5600000000000001 0.14 0  0.58 0.14 0  0.6 0.14 0  0.62 0.14 0  0.64 0.14 0  0.66 0.14 0  0.68 0.14 0  0.7 0.14 0  0.72 0.14 0  0.74 0.14 0  0.76 0.14 0  0.78 0.14 0  0.8 0.14 0  0.82 0.14 0  0.84 0.14 0  0.86 0.14 0  0.88 0.14 0  0.9 0.14 0  0.92 0.14 0  0.9399999999999999 0.14 0  0.96 0.14 0  0.98 0.14 0  1 0.14 0  0 0.16 0  0.02 0.16 0  0.04 0.16 0  0.06 0.16 0  0.08 0.16 0  0.1 0.16 0  0.12 0.16 0  0.14 0.16 0  0.16 0.16 0  0.18 0.16 0  0.2 0.16 0  0.22 0.16 0  0.24 0.16 0  0.26 0.16 0  0.28 0.16 0  0.3 0.16 0  0.32 0.16 0  0.34 0.16 0  0.36 0.16 0  0.38 0.16 0  0.4 0.16 0  0.42 0.16 0  0.44 0.16 0  0.46 0.16 0  0.48 0.16 0  0.5 0.16 0  0.52 0.16 0  0.54 0.16 0  0.5600000000000001 0.16 0  0.58 0.16 0  0.6 0.16 0  0.62 0.16 0  0.64 0.16 0  0.66 0.16 0  0.68 0.16 0  0.7 0.16 0  0.72 0.16 0  0.74 0.16 0  0.76 0.16 0  0.78 0.16 0  0.8 0.16 0  0.82 0.16 0  0.84 0.16 0  0.86 0.16 0  0.88 0.16 0  0.9 0.16 0  0.92 0.16 0  0.9399999999999999 0.16 0  0.96 0.16 0  0.98 0.16 0  1 0.16 0  0 0.18 0  0.02 0.18 0  0.04 0.18 0  0.06 0.18 0  0.08 0.18 0  0.1 0.18 0  0.12 0.18 0  0.14 0.18 0  0.16 0.18 0  0.18 0.18 0  0.2 0.18 0  0.22 0.18 0  0.24 0.18 0  0.26 0.18 0  0.28 0.18 0  0.3 0.18 0  0.32 0.18 0  0.34 0.18 0  0.36 0.18 0  0.38 0.18 0  0.4 0.18 0  0.42 0.18 0  0.44 0.18 0  0.46 0.18 0  0.48 0.18 0  0.5 0.18 0  0.52 0.18 0  0.54 0.18 0  0.5600000000000001 0.18 0  0.58 0.18 0  0.6 0.18 0  0.62 0.18 0  0.64 0.18 0  0.66 0.18 0  0.68 0.18 0  0.7 0.18 0  0.72 0.18 0  0.74 0.18 0  0.76 0.18 0  0.78 0.18 0  0.8 0.18 0  0.82 0.18 0  0.84 0.18 0  0.86 0.18 0  0.88 0.18 0  0.9 0.18 0  0.92 0.18 0  0.9399999999999999 0.18 0  0.96 0.18 0  0.98 0.18 0  1 0.18 0  0 0.2 0  0.02 0.2 0  0.04 0.2 0  0.06 0.2 0  0.08 0.2 0  0.1 0.2 0  0.12 0.2 0  0.14 0.2 0  0.16 0.2 0  0.18 0.2 0  0.2 0.2 0  0.22 0.2 0  0.24 0.2 0  0.26 0.2 0  0.28 0.2 0  0.3 0.2 0  0.32 0.2 0  0.34 0.2 0  0.36 0.2 0  0.38 0.2 0  0.4 0.2 0  0.42 0.2 0  0.44 0.2 0  0.46 0.2 0  0.48 0.2 0  0.5 0.2 0  0.52 0.2 0  0.54 0.2 0  0.5600000000000001 0.2 0  0.58 0.2 0  0.6 0.2 0  0.62 0.2 0  0.64 0.2 0  0.66 0.2 0  0.68 0.2 0  0.7 0.2 0  0.72 0.2 0  0.74 0.2 0  0.76 0.2 0  0.78 0.2 0  0.8 0.2 0  0.82 0.2 0  0.84 0.2 0  0.86 0.2 0  0.88 0.2 0  0.9 0.2 0  0.92 0.2 0  0.9399999999999999 0.2 0  0.96 0.2 0  0.98 0.2 0  1 0.2 0  0 0.22 0  0.02 0.22 0  0.04 0.22 0  0.06 0.22 0  0.08 0.22 0  0.1 0.22 0  0.12 0.22 0  0.14 0.22 0  0.16 0.22 0  0.18 0.22 0  0.2 0.22 0  0.22 0.22 0  0.24 0.22 0  0.26 0.22 0  0.28 0.22 0  0.3 0.22 0  0.32 0.22 0  0.34 0.22 0  0.36 0.22 0  0.38 0.22 0  0.4 0.22 0  0.42 0.22 0  0.44 0.22 0  0.46 0.22 0  0.48 0.22 0  0.5 0.22 0  0.52 0.22 0  0.54 0.22 0  0.5600000000000001 0.22 0  0.58 0.22 0  0.6 0.22 0  0.62 0.22 0  0.64 0.22 0  0.66 0.22 0  0.68 0.22 0  0.7 0.22 0  0.72 0.22 0  0.74 0.22 0  0.76 0.22 0  0.78 0.22 0  0.8 0.22 0  0.82 0.22 0  0.84 0.22 0  0.86 0.22 0  0.88 0.22 0  0.9 0.22 0  0.92 0.22 0  0.9399999999999999 0.22 0  0.96 0.22 0  0.98 0.22 0  1 0.22 0  0 0.24 0  0.02 0.24 0  0.04 0.24 0  0.06 0.24 0  0.08 0.24 0  0.1 0.24 0  0.12 0.24 0  0.14 0.24 0  0.16 0.24 0  0.18 0.24 0  0.2 0.24 0  0.22 0.24 0  0.24 0.24 0  0.26 0.24 0  0.28 0.24 0  0.3 0.24 0  0.32 0.24 0  0.34 0.24 0  0.36 0.24 0  0.38 0.24 0  0.4 0.24 0  0.42 0.24 0  0.44 0.24 0  0.46 0.24 0  0.48 0.24 0  0.5 0.24 0  0.52 0.24 0  0.54 0.24 0  0.5600000000000001 0.24 0  0.58 0.24 0  0.6 0.24 0  0.62 0.24 0  0.64 0.24 0  0.66 0.24 0  0.68 0.24 0  0.7 0.24 0  0.72 0.24 0  0.74 0.24 0  0.76 0.24 0  0.78 0.24 0  0.8 0.24 0  0.82 0.24 0  0.84 0.24 0  0.86 0.24 0  0.88 0.24 0  0.9 0.24 0  0.92 0.24 0  0.9399999999999999 0.24 0  0.96 0.24 0  0.98 0.24 0  1 0.24 0  0 0.26 0  0.02 0.26 0  0.04 0.26 0  0.06 0.26 0  0.08 0.26 0  0.1 0.26 0  0.12 0.26 0  0.14 0.26 0  0.16 0.26 0  0.18 0.26 0  0.2 0.26 0  0.22 0.26 0  0.24 0.26 0  0.26 0.26 0  0.28 0.26 0  0.3 0.26 0  0.32 0.26 0  0.34 0.26 0  0.36 0.26 0  0.38 0.26 0  0.4 0.26 0  0.42 0.26 0  0.44 0.26 0  0.46 0.26 0  0.48 0.26 0  0.5 0.26 0  0.52 0.26 0  0.54 0.26 0  0.5600000000000001 0.26 0  0.58 0.26 0  0.6 0.26 0  0.62 0.26 0  0.64 0.26 0  0.66 0.26 0  0.68 0.26 0  0.7 0.26 0  0.72 0.26 0  0.74 0.26 0  0.76 0.26 0  0.78 0.26 0  0.8 0.26 0  0.82 0.26 0  0.84 0.26 0  0.86 0.26 0  0.88 0.26 0  0.9 0.26 0  0.92 0.26 0  0.9399999999999999 0.26 0  0.96 0.26 0  0.98 0.26 0  1 0.26 0  0 0.28 0  0.02 0.28 0  0.04 0.28 0  0.06 0.28 0  0.08 0.28 0  0.1 0.28 0  0.12 0.28 0  0.14 0.28 0  0.16 0.28 0  0.18 0.28 0  0.2 0.28 0  0.22 0.28 0  0.24 0.28 0  0.26 0.28 0  0.28 0.28 0  0.3 0.28 0  0.32 0.28 0  0.34 0.28 0  0.36 0.28 0  0.38 0.28 0  0.4 0.28 0  0.42 0.28 0  0.44 0.28 0  0.46 0.28 0  0.48 0.28 0  0.5 0.28 0  0.52 0.28 0  0.54 0.28 0  0.5600000000000001 0.28 0  0.58 0.28 0  0.6 0.28 0  0.62 0.28 0  0.64 0.28 0  0.66 0.28 0  0.68 0.28 0  0.7 0.28 0  0.72 0.28 0  0.74 0.28 0  0.76 0.28 0  0.78 0.28 0  0.8 0.28 0  0.82 0.28 0  0.84 0.28 0  0.86 0.28
[...]
<PointData  Scalars="f_9"> 
<DataArray  type="Float64"  Name="f_9"  format="ascii">0.0000000000000000e+00  0.0000000000000000e+00  0.0000000000000000e+00  0.0000000000000000e+00  0.0000000000000000e+00  0.0000000000000000e+00  0.0000000000000000e+00  0.0000000000000000e+00  0.0000000000000000e+00  0.0000000000000000e+00  0.0000000000000000e+00  0.0000000000000000e+00  0.0000000000000000e+00  0.0000000000000000e+00  0.0000000000000000e+00  0.0000000000000000e+00  0.0000000000000000e+00  0.0000000000000000e+00  0.0000000000000000e+00  0.0000000000000000e+00  0.0000000000000000e+00  0.0000000000000000e+00  0.0000000000000000e+00  0.0000000000000000e+00  0.0000000000000000e+00  0.0000000000000000e+00  0.0000000000000000e+00  0.0000000000000000e+00  0.0000000000000000e+00  0.0000000000000000e+00  0.0000000000000000e+00  0.0000000000000000e+00  0.0000000000000000e+00  0.0000000000000000e+00  0.0000000000000000e+00  0.0000000000000000e+00  0.0000000000000000e+00  0.0000000000000000e+00  0.0000000000000000e+00  0.0000000000000000e+00  0.0000000000000000e+00  0.0000000000000000e+00  0.0000000000000000e+00  0.0000000000000000e+00  0.0000000000000000e+00  0.0000000000000000e+00  0.0000000000000000e+00  0.0000000000000000e+00  0.0000000000000000e+00  0.0000000000000000e+00  0.0000000000000000e+00  0.0000000000000000e+00  9.9101828771963954e-04  1.9720364263443751e-03  2.9352606563351901e-03  3.8730124721357570e-03  4.7780966261858366e-03  5.6440408087422992e-03  6.4652775337118319e-03  7.2372858715803751e-03  7.9566949327355817e-03  8.6213460826143010e-03  9.2303097557060679e-03  9.7838535172800958e-03  1.0283360169034465e-02  1.0731197970893480e-02  1.1130549138436979e-02  1.1485207152958888e-02  1.1799357398778069e-02  1.2077358505678834e-02  1.2323542914221358e-02  1.2542054011129311e-02  1.2736732806358520e-02  1.2911058369145072e-02  1.3068133282145233e-02  1.3210692300900375e-02  1.3341106279483327e-02  1.3461357903150192e-02  1.3572976553669850e-02  1.3676928889080437e-02  1.3773465376736347e-02  1.3861922478941848e-02  1.3940479493285101e-02  1.4005871854597703e-02  1.4053071034269983e-02  1.4074955409910522e-02  1.4062015353821303e-02  1.4002155708110739e-02  1.3880673255652475e-02  1.3680487186760933e-02  1.3382679809327882e-02  1.2967362971721125e-02  1.2414834312149826e-02  1.1706946028831428e-02  1.0828593903561683e-02  9.7692497425168109e-03  8.5244980118342143e-03  7.0975851387643186e-03  5.5010410818752782e-03  3.7584958757293824e-03  1.9069358211336897e-03  0.0000000000000000e+00  0.0000000000000000e+00  1.9720364263409308e-03  3.9248796998992176e-03  5.8422934990135303e-03  7.7086629867304307e-03  9.5094613865169403e-03  1.1231655266817532e-02  1.2864047604376806e-02  1.4397556565732349e-02  1.5825423052510345e-02  1.7143337339340828e-02  1.8349474881858074e-02  1.9444433490747461e-02  2.0431068572260458e-02  2.1314229916766819e-02  2.2100412061809235e-02  2.2797339502863615e-02  2.3413516474137912e-02  2.3957777135701245e-02  2.4438874650346876e-02  2.4865145981026210e-02  2.5244281595981896e-02  2.5583212007387997e-02  2.5888094277390999e-02  2.6164349985495796e-02  2.6416690894075084e-02  2.6649080846736894e-02  2.6864610158824857e-02  2.7065280357090486e-02  2.7251703183625922e-02  2.7422713452726462e-02  2.7574891068848910e-02  2.7701991455863325e-02  2.7794299728261276e-02  2.7837952911555226e-02  2.7814314509049219e-02  2.7699530265646883e-02  2.7464429664599034e-02  2.7074944740229819e-02  2.6493177309661109e-02  2.5679154183746764e-02  2.4593192365094791e-02  2.3198700486252860e-02  2.1465209670416006e-02  1.9371464127943105e-02  1.6908485928287292e-02  1.4082627497157628e-02  1.0918717343424103e-02  7.4634833338009087e-03  3.7895072665052377e-03  0.0000000000000000e+00  0.0000000000000000e+00  2.9352606563215903e-03  5.8422934989966428e-03  8.6961735657325318e-03  1.1473110146117259e-02  1.4151052421105825e-02  1.6710254856669847e-02  1.9133777465768560e-02  2.1407902904007309e-02  2.3522452613866200e-02  2.5470983611062259e-02  2.7250848344512340e-02  2.8863103564785171e-02  3.0312261071693873e-02  3.1605883844633018e-02  3.2754044817030654e-02  3.3768680755096515e-02  3.4662887698773334e-02  3.5450214472353810e-02  3.6144015306759980e-02  3.6756921624053709e-02  3.7300485229819637e-02  3.7785021751400374e-02  3.8219632619536474e-02  3.8612318838810430e-02  3.8970066444874892e-02  3.9298813182093335e-02  3.9603267429811136e-02  3.9886591212602067e-02  4.0149963047894824e-02  4.0392020016288589e-02  4.0608164371727110e-02  4.0789722085053236e-02  4.0922963522587057e-02  4.0988040627914411e-02  4.0957959768311340e-02  4.0797787968294870e-02  4.0464362447812832e-02  3.9906803092872277e-02  3.9068072403463397e-02  3.7887668824933295e-02  3.6305319357785554e-02  3.4265355597823045e-02  3.1721400614117296e-02  2.8641071129836746e-02  2.5010554284595612e-02  2.0839084141851785e-02  1.6163477947848573e-02  1.1052981798305630e-02  5.6147175625373760e-03  0.0000000000000000e+00  0.0000000000000000e+00  3.8730124721023675e-03  7.7086629866772727e-03  1.1473110146071096e-02  1.5134135239646173e-02  1.8661928826606080e-02  2.2029832137911046e-02  2.5215003541731857e-02  2.8198982895242520e-02  3.0968126451853595e-02  3.3513884365033733e-02  3.5832893763570163e-02  3.7926864632219955e-02  3.9802244821595577e-02  4.1469665332252402e-02  4.2943187177710139e-02  4.4239394221870940e-02  4.5376397920529117e-02  4.6372834795386002e-02  4.7246943305587111e-02  4.8015806724686097e-02  4.8694847543947969e-02  4.9297640022692921e-02  4.9836027623378347e-02  5.0320398395817707e-02  5.0759895077308055e-02  5.1162407808521021e-02  5.1534333112941935e-02  5.1880153915252192e-02  5.2201883229609010e-02  5.2498368477366400e-02  5.2764419721039853e-02  5.2989722315306548e-02  5.3157523028424629e-02  5.3243136837905304e-02  5.3212413854800966e-02  5.3020431365001522e-02  5.2610811489824202e-02  5.1916151861887437e-02  5.0860006174683017e-02  4.9360597851654600e-02  4.7336052540148867e-02  4.4710600518431683e-02  4.1421113653922793e-02  3.7423502482019089e-02  3.2698774765097673e-02  2.7258819194586541e-02  2.1152163767798247e-02  1.4470060321096097e-02  7.3532813288314045e-03  0.0000000000000000e+00  0.0000000000000000e+00  4.7780966261206587e-03  9.5094613864032361e-03  1.4151052420976458e-02  1.8661928826509713e-02  2.3004242369783389e-02  2.7144172798332582e-02  3.1052775357605918e-02  3.4706707253126072e-02  3.8088797238691428e-02  4.1188420176911024e-02  4.4001638039280457e-02  4.6531072607174019e-02  4.8785485561767268e-02  5.0779060780177104e-02  5.2530411888702284e-02  5.4061372453046042e-02  5.5395659112388362e-02  5.6557519326317730e-02  5.7570479108413418e-02  5.8456301130890391e-02  5.9234280770438144e-02  5.9921029377534629e-02  6.0530784851440034e-02  6.1076004349902020e-02  6.1567804079731045e-02  6.2015986950870884e-02  6.2428706629994925e-02  6.2811928190798630e-02  6.3168777479440871e-02  6.3498763229975080e-02  6.3796791023683422e-02  6.4051881863453106e-02  6.4245543355463189e-02  6.4349807357318822e-02  6.4325063513042152e-02  6.4118002791988621e-02  6.3660224792882553e-02  6.2868276113288546e-02  6.1645900185453538e-02  5.9888895817195038e-02  5.7492252375395236e-02  5.4358599642060808e-02  5.0406896394875153e-02  4.5580629285114610e-02  3.9855285497290081e-02  3.3245263633144881e-02  2.5810624754710250e-02  1.7664185071389976e-02  8.9794666292677457e-03  0.0000000000000000e+00  0.0000000000000000e+00  5.6440408086318450e-03  1.1231655266615747e-02  1.6710254856414700e-02  2.2029832137659532e-02  2.7144172798160365e-02  3.2012001228255885e-02  3.6598026291621143e-02  4.0873848934737750e-02  4.4818687783991520e-02  4.8419873607597405e-02  5.1673060197146993e-02  5.4582100656150399e-02  5.7158548106983689e-02  5.9420762659217002e-02  6.1392644760323981e-02  6.3102066207212912e-02  6.4579122397923738e-02  6.5854362211084747e-02  6.6957145859021072e-02  6.7914242766361488e-02  6.8748823696243438e-02  6.9480169743132175e-02  7.0124330153636075e-02  7.0695327882897369e-02  7.1206000646377138e-02  7.1668020143206529e-02  7.2091354057415305e-02  7.2483564223550928e-02  7.2849103432675408e-02  7.3188546962287646e-02  7.3497593909314485e-02  7.3765679731317826e-02  7.3974091261596875e-02  7.4093530645195027e-02  7.4081191289528156e-02  7.3877652413837494e-02  7.3404292204686070e-02  7.2562388823588606e-02  7.1235319279380344e-02  6.9294741300488655e-02  6.6610255319003997e-02  6.3060799442145293e-02  5.8545932990694605e-02  5.2995940059089482e-02  4.6380561994814884e-02  3.8716749496497928e-02  3.0076085873713264e-02  2.0592586729537985e-02  1.0471541179276143e-02  0.0000000000000000e+00  0.0000000000000000e+00  6.4652775335423901e-03  1.2864047604058569e-02  1.9133777465342880e-02  2.5215003541261785e-02  3.1052775357177157e-02  3.6598026291342109e-02  4.1808835731572354e-02  4.6651539802902132e-02  5.1101639215811817e-02  5.5144443559252340e-02  5.8775383219120132e-02  6.1999916384230108e-02  6.4832964887165945e-02  6.7297836682447293e-02  6.9424642343193080e-02  7.1248289405878629e-02  7.2806226212015032e-02  7.4136167710752002e-02  7.5274017573278840e-02  7.6252037231780256e-02  7.7097322193305673e-02  7.7831244161639029e-02  7.8470686574796930e-02  7.9030463266444528e-02  7.9524848881073154e-02  7.9967387761900835e-02  8.0369898883605045e-02  8.0741540022886929e-02  8.1088137706593261e-02  8.1411576989420573e-02  8.1708935244791309e-02  8.1971113838389772e-02  8.2180813611893444e-02  8.2309698508231763e-02  8.2314651739075401e-02  8.2133295133488646e-02  8.1679515594279439e-02  8.0840673217371664e-02  7.9479057930476757e-02  7.7439632981640194e-02  7.4563336250297776e-02  7.0702587526829716e-02  6.5735778636121664e-02  5.9579303641938211e-02  5.2197221616980975e-02  4.3609400463156249e-02  3.3899176985280291e-02  2.3221491034308900e-02  1.1812305518862603e-02  0.0000000000000000e+00  0.0000000000000000e+00  7.2372858713397274e-03  1.4397556565271835e-02  2.1407902903369004e-02  2.8198982894491867e-02  3.4706707252354613e-02  4.0873848934065454e-02  4.6651539802478097e-02  5.2000608147096103e-02  5.6892699045198517e-02  6.1311105593699726e-02  6.5251224100695643e-02  6.8720533693777619e-02  7.1737997563190353e-02  7.4332801853986274e-02  7.6542406656729081e-02  7.8409995392201462e-02  7.9981560874711019e-02  8.1302997224513188e-02  8.2417601277274877e-02  8.3363866051441818e-02  8.4173057071961321e-02  8.4867782306137354e-02  8.5464096782937649e-02  8.5976437009901693e-02  8.6420333974421046e-02  8.6811370623908146e-02  8.7163213358876571e-02  8.7486390473984099e-02  8.7787847766353663e-02  8.8070729165253339e-02  8.8333820470013938e-02  8.8570334573692081e-02  8.8765930163863013e-02  8.8895684693083274e-02  8.8919637930349668e-02  8.8776713508759278e-02  8.8377479509374746e-02  8.7597808954457013e-02  8.6278064023510140e-02  8.4232665046503036e-02  8.1269122740929442e-02  7.7209640036861885e-02  7.1909553596791312e-02  6.5271049434256059e-02  5.7253107728728603e-02  4.7879363137584632e-02  3.7245446435046951e-02  2.5527031645149034e-02  1.2989508600196939e-02  0.0000000000000000e+00  0.0000000000000000e+00  7.9566949324151922e-03  1.5825423051888582e-02  2.3522452612982171e-02  3.0968126450769955e-02  3.8088797237499035e-02  4.4818687782814753e-02  5.1101639214813109e-02  5.6892699044580011e-02  6.2159486579130979e-02  6.6883254288994512e-02  7.1059540500244517e-02  7.4698283027178999e-02  7.7823241907322233e-02  8.0470579372447060e-02  8.2686499740780933e-02  8.4524004938497876e-02  8.6039079601143376e-02  8.7286871073483291e-02  8.8318886118014014e-02  8.9180947175621347e-02  8.9909308952722311e-02  9.0526709499179528e-02  9.1045489901830604e-02  9.1477991432677513e-02  9.1841286282953544e-02  9.2153490675989672e-02  9.2429967728283435e-02  9.2681984929409197e-02  9.2916900556521895e-02  9.3138662480423837e-02  9.3347725431948761e-02  9.3540044522228083e-02  9.3705367536308509e-02  9.3824416252380638e-02  9.3864142037368523e-02  9.3770227610233486e-02  9.3456292972021862e-02  9.2791275280655186e-02  9.1592870913644056e-02  8.9639006292176804e-02  8.6696792185127353e-02  8.2553619487068450e-02  7.7040170271349656e-02  7.0044933749962943e-02  6.1523273872916215e-02  5.1504074028953906e-02  4.0096124945069214e-02  2.7495668240667823e-02  1.3996027405351811e-02  0.0000000000000000e+00  0.0000000000000000e+00  8.6213460822119250e-03  1.7143337338550991e-02  2.5470983609916502e-02  3.3513884363585017e-02  4.1188420175240659e-02  4.8419873605823595e-02  5.5144443557539349e-02  6.1311105592265581e-02  6.6883254288114313e-02  7.1840040845473865e-02  7.6177287710263247e-02  7.9907820220237694e-02  8.3061005393159970e-02  8.5681245870475889e-02  8.7825192463529350e-02  8.9557619755535292e-02  9.0946351229588746e-02  9.2056799400180744e-02  9.2948889190552414e-02  9.3677130065691422e-02  9.4284905217884921e-02  9.4794132935769992e-02  9.5208485285417602e-02  9.5535800852389108e-02  9.5796196038388542e-02  9.6011177593785940e-02  9.6197144799207893e-02  9.6364806222659583e-02  9.6520678579294250e-02  9.6668647593422641e-02  9.6810425433015157e-02  9.6944543686147702e-02  9.7065144861293945e-02  9.7159951267551711e-02  9.7206057633173582e-02  9.7162086840207870e-02  9.6954135718655021e-02  9.6452974711436573e-02  9.5453792569676593e-02  9.3688508012141195e-02  9.0873611009041150e-02  8.6756544410206457e-02  8.1142860724159618e-02  7.3909338850285070e-02  6.5010351599349397e-02  5.4482186435487738e-02  4.2447881756934536e-02  2.9123943084703192e-02  1.4829722826729497e-02  0.0000000000000000e+00  0.0000000000000000e+00  9.2303097552285211e-03  1.8349474880911227e-02  2.7250848343114972e-02  3.5832893761757460e-02  4.4001638037113128e-02  5.1673060194723022e-02  5.8775383216588928e-02  6.5251224098273150e-02  7.1059540498225784e-02  7.6177287709027736e-02  8.0600662987987182e-02  8.4345758310946831e-02  8.7448358251531078e-02  8.9962505739796958e-02  9.1957356870333462e-02  9.3511967074993027e-02  9.4708668903111637e-02  9.5624273870049903e-02  9.6325407978472610e-02  9.6875837417182156e-02  9.7330133741578034e-02  9.7710220155018498e-02  9.8003909292059890e-02  9.8211461673551326e-02  9.8359559794325729e-02  9.8473495677863190e-02  9.8568695716725607e-02  9.8653194652307402e-02  9.8731069848355626e-02  9.8805074451893987e-02  9.8877588217228113e-02  9.8948914792185080e-02  9.9016727999296575e-02  9.9075412191713147e-02  9.9113312502360010e-02  9.9106845692542120e-02  9.9006988552608061e-02  9.8703296248832201e-02  9.7972199889692232e-02  9.6483979842857850e-02  9.3889713605771599e-02  8.9892508559935400e-02  8.4274814190727215e-02  7.6905796728104686e-02  6.7742681117268222e-02  5.6831764454843406e-02  4.4311338903947652e-02  3.0417445407888245e-02  1.5492912098922300e-02  0.0000000000000000e+00  0.0000000000000000e+00  9.7838535167458912e-03  1.9444433489678094e-02  2.8863103563181482e-02  3.7926864630091081e-02  4.6531072604547905e-02  5.4582100653088314e-02  6.1999916380845344e-02  6.8720533690258226e-02  7.4698283023811651e-02  7.9907820217427900e-02  8.4345758309225680e-02  8.8031746522207188e-02  9.1008711579067120e-02  9.3341778836173409e-02  9.5115046045519930e-02  9.6424908321580655e-02  9.7372316275518525e-02  9.8048587103777674e-02  9.8522049983676613e-02  9.8861936954148966e-02  9.9135245441967751e-02  9.9370420311771401e-02  9.9539220727011227e-02  9.9630314661545885e-02  9.9678546756679323e-02  9.9709949824608388e-02  9.9734851955339113e-02  9.9756452877462112e-02  9.9775590981729015e-02  9.9793064083576188e-02  9.9811276499197243e-02  9.9831169270697573e-02  9.9852100086362444e-02  9.9872701860842683e-02  9.9889525316049346e-02  9.9895243401822070e-02  9.9875816322099173e-02  9.9770215850643301e-02  9.9352885005078037e-02  9.8207308800316806e-02  9.5898466342655073e-02  9.2084323577047753e-02  8.6530178201857988e-02  7.9103758432069141e-02  6.9769612446258969e-02  5.8586454234073514e-02  4.5708219340936676e-02  3.1388938453957828e-02  1.5991444734552111e-02  0.0000000000000000e+00  0.0000000000000000e+00  1.0283360168475782e-02  2.0431068571130979e-02  3.0312261069972209e-02  3.9802244819257614e-02  4.8785485558796853e-02  5.7158548103388475e-02  6.4832964882999444e-02  7.1737997558581207e-02  7.7823241902509277e-02  8.3061005388530645e-02  8.7448358247652264e-02  9.1008711576689535e-02  9.3792675439412596e-02  9.5877734356297761e-02  9.7365810765371263e-02  9.8374145404132016e-02  9.9025634147112143e-02  9.9437512502127484e-02  9.9678547842228848e-02  9.9811089509363515e-02  9.9903803564502860e-02  9.9985082021560936e-02  1.0003687835106355e-01  1.0004425379792205e-01  1.0003612996726871e-01  1.0002882054371248e-01  1.0002359899426608e-01  1.0001900679410466e-01  1.0001420982854177e-01  1.0000901771789035e-01  1.0000461449022841e-01  1.0000168040446004e-01  9.9999851364518583e-02  9.9999048697696824e-02  9.9997672724836437e-02  9.9993239273243786e-02  9.9997248776213271e-02  1.0002360887476545e-01  9.9904878862094260e-02  9.9117012831234377e-02  9.7106486152409882e-02  9.3491204816435483e-02  8.8028385137045723e-02  8.0590737434971887e-02  7.1153719573969640e-02  5.9789648649984123e-02  4.6667234505729786e-02  3.2055752319568157e-02  1.6333441015691109e-02  0.0000000000000000e+00  0.0000000000000000e+00  1.0731197970356876e-02  2.1314229915669385e-02  3.1605883842928936e-02  4.1469665329879869e-02  5.0779060777067876e-02  5.9420762655311453e-02  6.7297836677717382e-02  7.4332801848468549e-02  8.0470579366287112e-02  8.5681245863984207e-02  8.9962505733509390e-02  9.3341778830895103e-02  9.5877734353085192e-02  9.7660872574361762e-02  9.8813837581140179e-02  9.9485632998577767e-02  9.9825613322731807e-02  9.9979060893830407e-02  1.0003404083843387e-01  1.0003395038109725e-01  1.0002475016513494e-01  1.0002122986327205e-01  1.0001420659887456e-01  9.9998696744984877e-02  9.9986761059034729e-02  9.9981244370508732e-02  9.9978128424307894e-02  9.9975147742625461e-02  9.9971954099075389e-02  9.9968701082038508e-02  9.9965739587419333e-02  9.9963115739274924e-02  9.9960877042251872e-02  9.9959257111492422e-02  9.9954541708771161e-02  9.9939237365542652e-02  9.9928084662024325e-02  9.9979430723409771e-02  1.0002606216449847e-01  9.9516188262523494e-02  9.7742461902658506e-02  9.4283299835623918e-02  8.8894803048559817e-02  8.1458049960066142e-02  7.1960493823740562e-02  6.0487211581333911e-02  4.7219159692978477e-02  3.2436741915728019e-02  1.6527840948399045e-02  0.0000000000000000e+00  0.0000000000000000e+00  1.1130549137982093e-02  2.2100412060863706e-02  3.2754044815525109e-02  4.2943187175545405e-02  5.2530411885756162e-02  6.1392644756463402e-02  6.9424642338294595e-02  7.6542406650711423e-02  8.2686499733654301e-02  8.7825192455465356e-02  9.1957356861755685e-02  9.5115046037199016e-02  9.7365810758475210e-02  9.8813837577121144e-02  9.9609428865285329e-02  9.9950411668869921e-02  1.0003974558644992e-01  1.0003187938036331e-01  1.0000786825088770e-01  9.9984328604547937e-02  9.9968943610158664e-02  9.9961089278207668e-02  9.9955241194144728e-02  9.9950444049706724e-02  9.9949726327878768e-02  9.9951616470389429e-02  9.9953232530196293e-02  9.9953989228332527e-02  9.9954305145384503e-02  9.9954452624927886e-02  9.9954475045761465e-02  9.9954433052787520e-02  9.9955055542999466e-02  9.9956568772967769e-02  9.9952210726183155e-02  9.9929248036128335e-02  9.9903574051115301e-02  9.9945612879721965e-02  1.0003620261311895e-01  9.9654765917615101e-02  9.7997784828547582e-02  9.4605014253660538e-02  8.9236824573405829e-02  8.1784685765122239e-02  7.2247328364006727e-02  6.0719997968215297e-02  4.7391904813856967e-02  3.2549294386036556e-02  1.6582990152726174e-02  0.0000000000000000e+00  0.0000000000000000e+00  1.1485207152654628e-02  2.2797339502210228e-02  3.3768680754005846e-02  4.4239394220212766e-02  5.4061372450651117e-02  6.3102066203880064e-02  7.1248289401389692e-02  7.8409995386348616e-02  8.4524004931131352e-02  8.9557619746641004e-02  9.3511967064809173e-02  9.6424908310755203e-02  9.8374145393888543e-0