<?xml version="1.0"?>
<VTKFile type="UnstructuredGrid"  version="0.1"  >
<UnstructuredGrid>
<Piece  NumberOfPoints="568" NumberOfCells="1054">
<Points>
<DataArray  type="Float64"  NumberOfComponents="3"  format="ascii">0 0 0  1 0 0  1 1 0  0 1 0  0.04999999999989965 0 0  0.09999999999981467 0 0  0.1499999999997036 0 0  0.1999999999995579 0 0  0.2499999999994121 0 0  0.2999999999992664 0 0  0.3499999999991206 0 0  0.3999999999989749 0 0  0.4499999999988292 0 0  0.4999999999986943 0 0  0.5499999999988151 0 0  0.5999999999989468 0 0  0.6499999999990784 0 0  0.69999999999921 0 0  0.7499999999993417 0 0  0.7999999999994734 0 0  0.8499999999996051 0 0  0.8999999999997368 0 0  0.9499999999998684 0 0  1 0.04999999999989965 0  1 0.09999999999981467 0  1 0.1499999999997036 0  1 0.1999999999995579 0  1 0.2499999999994121 0  1 0.2999999999992664 0  1 0.3499999999991206 0  1 0.3999999999989749 0  1 0.4499999999988292 0  1 0.4999999999986943 0  1 0.5499999999988151 0  1 0.5999999999989468 0  1 0.6499999999990784 0  1 0.69999999999921 0  1 0.7499999999993417 0  1 0.7999999999994734 0  1 0.8499999999996051 0  1 0.8999999999997368 0  1 0.9499999999998684 0  0.9499999999997918 1 0  0.8999999999995836 1 0  0.8499999999996529 1 0  0.7999999999999998 1 0  0.7500000000003466 1 0  0.7000000000006934 1 0  0.6500000000010401 1 0  0.6000000000013869 1 0  0.5500000000017335 1 0  0.5000000000020587 1 0  0.4500000000018723 1 0  0.4000000000016644 1 0  0.3500000000014564 1 0  0.3000000000012483 1 0  0.2500000000010403 1 0  0.2000000000008322 1 0  0.1500000000006241 1 0  0.100000000000416 1 0  0.05000000000020799 1 0  0 0.9499999999997918 0  0 0.8999999999995836 0  0 0.8499999999996529 0  0 0.7999999999999998 0  0 0.7500000000003466 0  0 0.7000000000006934 0  0 0.6500000000010401 0  0 0.6000000000013869 0  0 0.5500000000017335 0  0 0.5000000000020587 0  0 0.4500000000018723 0  0 0.4000000000016644 0  0 0.3500000000014564 0  0 0.3000000000012483 0  0 0.2500000000010403 0  0 0.2000000000008322 0  0 0.1500000000006241 0  0 0.100000000000416 0  0 0.05000000000020799 0  0.5033399805493876 0.50119715791969 0  0.7071428571428752 0.7071428571428401 0  0.292857142857163 0.7071428571428829 0  0.7071428571428393 0.2928571428571245 0  0.2928571428571166 0.2928571428571638 0  0.5000000000000266 0.7803135888501762 0  0.2196864111498268 0.5000000000000315 0  0.7803135888501738 0.4999999999999757 0  0.4999999999999711 0.2196864111498291 0  0.8289812646369813 0.8289812646369882 0  0.1710187353630001 0.8289812646369611 0  0.8319978061333785 0.1690131600686715 0  0.1690131600686818 0.1680021938666308 0  0.5656651559646165 0.636704649714091 0  0.359843205574921 0.566986062717789 0  0.640156794425081 0.4330139372822172 0  0.4330139372822104 0.3598432055749214 0  0.6398786011318781 0.8471536173895075 0  0.1528463826104911 0.6398786011318783 0  0.8471536173895007 0.360121398868122 0  0.3601213988681222 0.1528463826104981 0  0.8459852991288416 0.6396925151782715 0  0.3603074848217416 0.8459852991288244 0  0.6396925151782666 0.1540147008711593 0  0.1540147008711762 0.3603074848217466 0  0.4434591735942961 0.6664164062255127 0  0.6661733647266973 0.5586987495249737 0  0.3338266352733019 0.441301250475035 0  0.5586987495249669 0.3338266352733065 0  0.534321423472922 0.8856319384725199 0  0.114368061527482 0.5343214234729274 0  0.8856105906375696 0.465727619562376 0  0.4656785765270602 0.1143680615275231 0  0.7419880486468831 0.9089271872032744 0  0.09107281279671958 0.7419880486468781 0  0.8958600093154412 0.2571461949877042 0  0.2571461949877132 0.1041399906845497 0  0.8894906209313578 0.7369458544253126 0  0.7368824640183259 0.1104775404132314 0  0.2630541455747042 0.8894906209313613 0  0.1104775404132263 0.2631175359816938 0  0.598195373710164 0.7438096602414341 0  0.2561903397585688 0.5981953737101686 0  0.7438096602414273 0.4018046262898415 0  0.4018046262898373 0.2561903397585754 0  0.7456598267621463 0.611624142165106 0  0.3883758578349105 0.7456598267621477 0  0.6116241421651007 0.2543401732378587 0  0.2543401732378567 0.3883758578349159 0  0.9004503972088093 0.9020090423547924 0  0.9008275852690087 0.09807684568291652 0  0.09799095764520824 0.9004503972088093 0  0.0980768456829153 0.0991724147309935 0  0.4359067399905327 0.9028990204227966 0  0.09710097957720731 0.435906739990532 0  0.9028990204227227 0.5640932600094613 0  0.5640932600094622 0.09710097957728131 0  0.7398280348099157 0.7962960869699175 0  0.203703913030074 0.7398280348098948 0  0.796296086969941 0.2601719651901145 0  0.260171965190135 0.2037039130300501 0  0.7948432312955676 0.7160954194217148 0  0.2839045805783068 0.7948432312955613 0  0.7160954194217082 0.2051567687044351 0  0.2051567687044408 0.2839045805783134 0  0.4918910132088028 0.5902433118732482 0  0.5679292476870073 0.549658442528173 0  0.4100959806956958 0.490839357492854 0  0.5490159137494039 0.4230652352516574 0  0.6519524273377167 0.6424993192059454 0  0.3575006807940564 0.6519524273377241 0  0.6424993192059415 0.3480475726622802 0  0.3480475726622739 0.3575006807940603 0  0.817095740868432 0.9131869608065677 0  0.0868130391934314 0.8170957408684287 0  0.9183880259387094 0.181725902897578 0  0.1817259028975822 0.08161197406129295 0  0.9183880259388425 0.8182740971023723 0  0.8211813651170635 0.08287507656972311 0  0.1817259028976387 0.9183880259388886 0  0.08287507656968084 0.1788186348829835 0  0.5148430472122083 0.6970723395183636 0  0.3029276604816395 0.514843047212215 0  0.7001511906722513 0.4848191499172746 0  0.4837887122800091 0.2974517782697735 0  0.6093837135931468 0.9184748968380032 0  0.08152510316199763 0.6093837135931508 0  0.9189012345446695 0.3909474272959734 0  0.3906162864068449 0.08152510316199166 0  0.9267032118385335 0.6577304291015115 0  0.6577304291015186 0.07329678816147221 0  0.342269570898513 0.9267032118385876 0  0.07329678816141809 0.3422695708985054 0  0.4308711725704896 0.8215422551712768 0  0.8215422551712279 0.5691288274295451 0  0.1784577448287255 0.4308711725704946 0  0.5691288274295404 0.1784577448287746 0  0.4610242570853369 0.432541991343326 0  0.5675926399098916 0.8179431903460164 0  0.1820568096539862 0.5675926399098974 0  0.8179431903459744 0.4324073600900937 0  0.4324073600900885 0.1820568096540278 0  0.6682031601950402 0.7776980060279689 0  0.222301993972028 0.6682031601950316 0  0.7776980060279659 0.3317968398049748 0  0.3317968398049835 0.2223019939720311 0  0.6775726880823147 0.9310620665618308 0  0.06893793343816279 0.6775726880823105 0  0.9310620665618532 0.322427311917695 0  0.322427311917699 0.06893793343814078 0  0.4356533960402853 0.5515938435710137 0  0.5842036345147092 0.4795331504969124 0  0.4985434159976798 0.3707591476812712 0  0.4465321259489053 0.7377718003423732 0  0.737771800342369 0.5534678740511212 0  0.2622281996576304 0.4465321259489113 0  0.5528737851572373 0.26079740763251 0  0.394198866753185 0.4191222524007079 0  0.4866977706045421 0.9351066681964662 0  0.06489333180353485 0.4866977706045449 0  0.9351066681964098 0.5133022293955194 0  0.5133022293955174 0.06489333180359143 0  0.4068115942301368 0.6153938409609069 0  0.4977172705590875 0.8399868579764175 0  0.1600131420235847 0.4977172705590932 0  0.8399857465730887 0.5022852827018409 0  0.5022827294409377 0.160013142023597 0  0.698590790893777 0.8431728094391272 0  0.1568271905608622 0.6985907908937736 0  0.8431728094391506 0.3014092091062366 0  0.3014092091062403 0.1568271905608388 0  0.8399087899273051 0.7710607097526261 0  0.228939290247373 0.8399087899272779 0  0.7721632508777295 0.1589969516331982 0  0.1589969516332145 0.2278367491222767 0  0.7590505875598524 0.6756399137000341 0  0.3243600862999786 0.7590505875598378 0  0.675639913700026 0.2409494124401591 0  0.2409494124401729 0.324360086299987 0  0.6451856454169053 0.6960156332500156 0  0.3039843667499874 0.6451856454169103 0  0.6960156332500128 0.3548143545830973 0  0.3548143545830931 0.3039843667499897 0  0.6123348939390163 0.6084674000356003 0  0.6012239052952365 0.3909780107182022 0  0.9394694856198154 0.6048537357103716 0  0.6048537357103753 0.06053051438018778 0  0.3951462642897318 0.939469485619852 0  0.06053051438015096 0.3951462642897279 0  0.6467109705156827 0.5053327790705264 0  0.9415664748877826 0.05843352511225672 0  0.05843352511226651 0.05843352511221451 0  0.9415664748877556 0.9415664748877426 0  0.05843352511225414 0.9415664748877458 0  0.7768897711833138 0.9470619985786628 0  0.05293800142133577 0.7768897711833116 0  0.9446562253046867 0.2316746033344627 0  0.2316746033344631 0.05534377469531053 0  0.9442075111696665 0.7677735618239079 0  0.7654341916234468 0.05645222870842097 0  0.2322264381761767 0.9442075111697059 0  0.05645222870837992 0.2345658083766157 0  0.7828491226277002 0.8374630804976363 0  0.1625369195023503 0.7828491226276855 0  0.8453405318016119 0.2262639405833009 0  0.2262639405833197 0.1546594681983812 0  0.5530720498574473 0.9481981223549167 0  0.05180187764508368 0.553072049857452 0  0.9481278282041519 0.4470894390493274 0  0.4469279501426524 0.05180187764506027 0  0.8506564220916593 0.6943782522786809 0  0.6943691965062547 0.1493390295290034 0  0.3056217477213369 0.8506564220916598 0  0.1493390295290023 0.3056308034937634 0  0.5117247185887375 0.640157712717949 0  0.3581565174377941 0.5111344044790909 0  0.5705118262244779 0.6966865201849674 0  0.3042974067995974 0.5691390514646012 0  0.6959578760418781 0.4307100015670799 0  0.4305948679533419 0.3039597341906354 0  0.5446550232516184 0.7471798304408015 0  0.2528713944126256 0.5445835543449239 0  0.7473021860744268 0.4553910005364452 0  0.4553313602172508 0.2525687312087148 0  0.8687933848901745 0.9488410612861271 0  0.05115893871387403 0.868793384890172 0  0.947642136133525 0.1348859048695831 0  0.1348859048695858 0.05235786386647956 0  0.9475882521249888 0.8651263648498017 0  0.8673312154421984 0.05271618979180726 0  0.134873635150292 0.9475882521250083 0  0.05271618979176394 0.1326687845578112 0  0.6883028344558701 0.6061109156479423 0  0.3846930779444115 0.693220
[...]
<PointData  Scalars="f_75088"> 
<DataArray  type="Float64"  Name="f_75088"  format="ascii">-3.6219933962888806e-02  -2.2134631782791767e-02  2.2704236205113654e-02  -3.6275294670283877e-02  2.7926145679734865e-01  5.8884433322611673e-01  9.2374351467979798e-01  8.4694770002040431e-01  9.4907222354090426e-01  9.3314956652072456e-01  8.4662358646116942e-01  5.6165481853192700e-01  2.2208613603351682e-01  3.5617995465871334e-02  -3.9599810494215321e-01  -3.9790112308278391e-01  -9.4688807501213845e-01  -8.3530747647817438e-01  -8.2907839898015434e-01  -6.4276980705463371e-01  -6.4226464707029240e-01  -2.6271974629596528e-01  -4.3435313528743788e-02  -4.5668646312115639e-02  -2.4560974393455398e-01  -6.4271308235727542e-01  -6.5710659284818340e-01  -8.2417859113259873e-01  -8.7241374355181511e-01  -8.2129307282157182e-01  -5.9339417126408811e-01  -2.6253310075127922e-01  -1.1098111638932300e-01  2.9869627637500501e-01  3.4383446704722226e-01  8.3699540272373474e-01  7.6817196122180953e-01  7.5050172875956822e-01  6.1834473192863282e-01  6.0417815469630665e-01  2.2972569878924304e-01  4.2041087155671529e-02  3.3261855917659469e-02  2.6991007184814114e-01  5.5078921889405097e-01  6.7954620574398827e-01  7.0288647723798170e-01  8.1786774098674453e-01  7.1578989647094093e-01  4.7816686193329877e-01  1.6720143332262424e-01  -4.0020179800229802e-02  -4.8360745394564525e-01  -4.4941620334869214e-01  -1.0947527707088223e+00  -9.8134996435294530e-01  -9.9285833216220398e-01  -8.9004674770657377e-01  -9.5635673608724947e-01  -5.8052985700575621e-01  -2.2672392036359165e-01  -3.6317887683357024e-02  -3.6317561987435146e-02  -3.6293073204895061e-02  -3.6299527524047200e-02  -3.6299326861327919e-02  -3.6297165291670930e-02  -3.6299499839608722e-02  -3.6293128253466103e-02  -3.6296732093272353e-02  -3.6300284573162186e-02  -3.6298515715344024e-02  -3.6296662538121902e-02  -3.6300506043818265e-02  -3.6299035763052281e-02  -3.6292273385085116e-02  -3.6285352024387998e-02  -3.6311316606646910e-02  -3.6267597827549493e-02  -3.6290292723237291e-02  3.5939709690771433e-02  2.4000896322440068e-01  -1.2722794139207819e-01  -2.0721309024237736e-01  1.6105935625037771e-01  1.4675054275370294e-02  1.6591741370942686e-02  1.3012964868384828e-02  1.1672991143635321e-02  4.3363740678332585e-01  -3.0339434817352340e-01  -4.3709783794065893e-01  3.0028800444366693e-01  8.2703548228679605e-02  2.4091250968126792e-03  -2.3238259618852140e-02  6.0977731386746739e-02  2.9298435657918659e-01  -6.8584480593870428e-02  -2.9845621724015448e-01  3.0243419252557363e-01  2.9566735449145592e-01  -3.0025669815670974e-01  -2.9146140680542942e-01  7.5028438876516043e-02  -5.6121798497399357e-03  8.1267550184838291e-02  5.6643935212800103e-02  -3.1041770796043946e-02  7.3023636817144008e-02  -1.6231756343955316e-02  -1.0780155096063829e-01  1.0602736010864899e-01  5.0369217032672642e-01  -1.1646210104836367e-01  -4.9850079401653224e-01  5.1283892052184188e-01  4.6916294005974685e-01  -4.8145155780895671e-01  -5.0742037744692770e-01  1.1045880789699371e-01  1.5150634100696458e-01  -3.7353712520945430e-02  -1.1604229013787808e-01  1.2886860766293828e-01  1.7051720578591681e-01  -1.0990308672774698e-01  -1.3589913473327953e-01  8.5731415228485097e-02  3.8669488693508730e-01  -3.9574869991549283e-01  -3.2151247405173411e-01  3.0127592409493398e-01  -2.4368206796367606e-01  1.2833309881680077e-02  1.8451001059104086e-01  -2.0243350647546834e-01  3.5195545470398282e-01  -1.7443259402152347e-01  -3.4067585711279680e-01  2.8231170873970168e-01  3.3079082080168071e-01  -2.6105738279244783e-01  -3.1488364119283974e-01  1.6126557799735061e-01  3.8096782960021752e-02  5.4374751565389061e-02  3.6423737654767391e-02  9.1879144704757124e-03  1.4304913157779134e-01  -4.8039548015138489e-02  -9.2896862280560460e-02  9.8174511266876582e-02  4.8414948794622797e-01  -1.7735867778670089e-01  -5.0640649242975755e-01  5.4199850293224683e-01  4.8955542070019537e-01  -4.9920072689356104e-01  -5.5925144054088149e-01  1.4576756385898726e-01  4.8257951176310987e-02  1.9298514359917154e-02  8.1281822189151857e-03  3.1475841188471229e-02  3.2529759656878471e-01  -4.4444536833533804e-02  -3.7284401941357925e-01  3.7670435829839122e-01  4.7599693843248125e-01  -5.0993142621110998e-01  -5.7561772373708564e-01  3.0489043111331403e-02  -1.3796383607733470e-01  1.4572879016634566e-01  4.4481290756753084e-02  -1.3125566776378014e-01  3.9499141006660042e-02  1.3577823268184785e-01  -2.5054347535963771e-02  -1.2882394261719970e-01  1.4122413772545994e-01  2.6163732055051042e-01  -9.6476325526788892e-02  -2.4105998604992909e-01  2.2577489615266205e-01  5.1116583414548344e-01  -6.6572704005004688e-02  -5.5514997455339565e-01  5.8232497778094261e-01  2.5058844474055909e-02  2.3169113713038206e-02  2.2285893784826150e-02  -3.9742753445277730e-02  9.2047306616696037e-02  5.1410278067692265e-02  -5.5526407677571082e-02  5.8407030060018815e-02  -1.1027031865183130e-01  -1.3483080547332034e-02  2.6910774107854286e-02  -5.8040161161256980e-02  -4.6916466027006410e-03  -1.2911969347157376e-02  7.3907177175942269e-03  6.6552722701282577e-03  3.2356329706505608e-03  3.6768419860891161e-01  -1.1450051193551472e-01  -3.6945676594719296e-01  3.5936234431256769e-01  4.1784573052048957e-01  -3.6291292114536039e-01  -4.1785704902921983e-01  1.9627007011717093e-01  2.5439843768626441e-01  -1.7935949657854014e-01  -2.2708926236043200e-01  1.3211052787665303e-01  1.7510679639947993e-01  -6.3433273132122464e-02  -1.3209451366434205e-01  1.2986893631661367e-01  9.7993972610699767e-02  -3.2506999933339095e-02  3.5386176345466708e-01  -3.9278889066818690e-01  -4.5441467822850573e-01  5.2110126641729450e-03  3.4508573356002083e-02  -2.4467437529477420e-01  2.2916653978058352e-01  2.3792524205720472e-01  -2.5169526237814144e-01  5.6816791386951659e-01  -1.0069966578292172e-01  -6.0580456266268767e-01  6.8021562922867485e-01  5.7275256597522273e-01  -6.0435695289367886e-01  -7.0718943147718527e-01  5.7740099418622008e-02  4.2046591311957371e-01  -2.1603170388003443e-01  -4.2487703797188808e-01  3.7398265911195000e-01  1.6083498840477689e-01  -2.9790345602067801e-02  -2.3496311611293658e-01  2.1567427835350222e-01  3.7656750958285817e-01  -3.7536001894597137e-01  -3.7363262194333274e-01  1.1075748674259860e-01  4.7965583452204384e-02  2.6846751804329300e-02  1.0444341895890107e-01  -1.0681281119551545e-02  -5.1358631938250902e-02  7.8868741420232355e-02  8.4022235163022638e-02  -3.8379590161825559e-03  -4.5497001156571425e-02  7.1244281277949434e-02  4.1990847095330508e-01  -1.5844906589507857e-01  -4.5093518603783117e-01  5.5048886977590505e-01  4.3373322791438529e-01  -4.4469820248955738e-01  -5.6660087361327716e-01  1.1975242522785969e-01  1.3347915768534183e-01  -6.4389608564851056e-02  -8.7041870689780823e-02  8.2730314398579294e-02  2.0595830051937025e-01  -3.7034120081528767e-02  -2.2583609958885265e-01  2.3188681261080146e-01  3.0914861843134545e-01  -1.8924737969419667e-01  -2.8798686311029026e-01  2.0168979643071402e-01  2.1038070025653954e-01  -5.6652316687026014e-02  -1.9382585954998854e-01  1.9846742797425598e-01  5.9079586889146141e-01  -6.3090439552749289e-01  -7.2494221481785170e-01  3.0928147693137183e-02  4.4251889948450995e-01  -2.8523173941737040e-01  -4.5053591797202797e-01  2.6716681906201234e-01  4.4314472568331958e-02  -1.8573948732269768e-01  2.1279386406470585e-01  7.6310474269733655e-02  -1.9356813531056705e-01  3.9442962526848951e-01  -2.5719555437303365e-01  -3.9109734229612730e-01  2.7490820473988442e-01  1.9833297672455238e-01  -1.0882618017450474e-01  -1.5968694373556483e-01  1.2023425535378139e-01  -3.7176217378731102e-01  3.2074223444190231e-01  4.1160000540035935e-02  -3.3483098945898482e-01  5.7823293989408241e-02  2.8847331425730257e-02  2.8859208825790811e-01  -2.5081183536694779e-01  -2.7237469783632989e-01  1.1136777864556283e-01  3.3736834097537194e-02  1.2607449267164475e-01  -2.7638023406129739e-02  -7.1477185575262378e-02  9.3181028344634265e-02  4.5740870426375391e-01  -4.3629314825416754e-01  3.9504474741543544e-01  -7.6595942959162999e-02  -4.1849462702597301e-01  4.2972733616974684e-01  -3.2959816437504547e-01  -1.2909266292884648e-02  2.1791755404160315e-01  -2.6744617825776884e-01  -4.6260340840190417e-01  2.0879258195184669e-01  3.8160594492236674e-02  -6.8118379934590481e-02  -2.0496585162326858e-04  2.4288065281572034e-02  -3.2831095477260291e-02  -9.3339404179239430e-02  1.2712110049123657e-01  5.3894984254766659e-02  -1.0071866833532114e-01  6.0209682930946062e-01  -7.1218283165090379e-02  -6.4403339038168195e-01  6.9716429225684584e-01  1.5119587490996265e-02  -4.6211012208034075e-01  4.1617321124188444e-01  4.9770639111934906e-01  -4.5900837463431002e-02  -5.6597340540155816e-01  5.7972625958123258e-01  7.1509782168776320e-02  4.7188619741099787e-02  2.4629240612047780e-05  -5.9165130916391173e-03  4.4360822945131984e-01  -4.1072436885785679e-01  -4.5303903780092680e-01  3.9482734892517890e-01  4.7105192080532576e-01  -1.7019025506241342e-01  2.8332067025740970e-01  -1.3583788505205796e-01  -2.6007831460090580e-01  2.1669815153410296e-01  5.2075034297423162e-01  -1.1996925958001867e-01  -5.6599316720832893e-01  7.0442032195433946e-01  5.3895138722657865e-01  -5.6206776161694716e-01  -7.3078386400798112e-01  5.1071040848523562e-02  7.2285199540854120e-02  2.3220842809637519e-02  3.8801821707201492e-02  5.2471591792206309e-03  3.5291671674143626e-02  4.5288196245845638e-02  1.3656317757176049e-02  9.4689934334028173e-04  2.7498082938106079e-02  4.3546760571260702e-02  5.6109428481117413e-02  2.9867108753046486e-02  3.3945365280964438e-03  -8.0836477419793429e-01  -3.4355764985356287e-03  6.3920429964232162e-01  -7.0018162985240384e-01  3.7268530973357847e-02  4.0190332877287356e-02  1.3464929070754916e-01  -2.6556430902938750e-02  -1.0996243082645760e-01  1.2537697584498822e-01  3.8700052319905276e-01  -4.2904916079791278e-01  -3.9830190425698142e-01  6.6582633135452790e-02  1.0770115589859354e-01  -5.5024633720658390e-02  -4.9680542271244149e-01  5.0133176697821302e-01  8.2918432879400747e-02  -1.3073489270112218e-02  -9.0918872469216830e-02  9.9888389733011784e-02  3.4416822196252589e-01  -3.7292243891780409e-02  -4.2208256468912175e-01  4.1077873341850152e-01  -1.2844590374589596e-01  2.3505161774246226e-02  1.1053800610801937e-01  -1.0714963471619589e-01  -2.3203466164217965e-01  2.1837833121223352e-01  4.7937422861990590e-02  -2.1487941586038728e-01  7.2503794109712333e-02  4.9569086709077281e-01  -5.4664126796656842e-01  -2.5722805277902626e-03  2.0385282977375091e-01  -7.0720808604666507e-02  -1.7144848588060416e-01  1.6733361646292633e-01  2.4551595282822462e-02  -5.0444209535612927e-01  1.3421937044105009e-01  3.2771413782788883e-01  -5.7514144050704777e-02  -3.5386300001067084e-01  3.6213796008426008e-01  -1.0384858114146703e-01  6.3710856868504376e-02  4.3036145252867567e-03  -2.6474483099265343e-02  2.9895791283179146e-01  -9.4321899534106232e-02  -2.9152593455451953e-01  2.8270601215881552e-01  4.6063224808071157e-01  -4.7889619494767705e-01  -5.2180017978805449e-01  7.1600904217216210e-02  -3.0287804046065098e-01  3.0166518250170560e-01  4.3090179873381235e-01  -1.5747496908263897e-01  -3.0755027150462894e-01  2.9146071351777059e-01  1.1319162386261214e-01  -4.3744174592030721e-01  1.9153740777344150e-01  -8.6426237143526236e-02  -1.5027964188460777e-01  1.3081314399134938e-01  7.6656446623101088e-02  -6.6426165813921545e-03  -6.1031370032618111e-02  7.8710810745975648e-02  7.1028885429738703e-02  9.7621466198042055e-03  -2.6513512963554191e-02  -5.9872270927748911e-02  2.9692826850393858e-02  7.4282765709513740e-02  -5.5373739303343057e-02  1.9214459583986837e-01  -3.1257286346083171e-02  -2.3619527141731650e-01  2.3556021501120325e-01  2.3686745040583365e-02  6.3276773709455059e-01  -5.0458895435342967e-02  -6.9340671397015119e-01  7.3030582658575327e-01  2.1162224856120868e-01  -4.6556266612409435e-02  -2.1150881643959490e-01  2.1886010416241583e-01  1.4503617422459406e-01  -3.7656177435132249e-02  -9.9965674327248163e-02  1.1339618829620939e-01  8.1674808370336333e-02  -1.4051775626692015e-01  -2.0819573636119926e-01  -2.4253592589170963e-02  -1.8083279479740100e-01  2.3156522682489400e-01  1.0170449679769400e-01  -2.0673482894833420e-01  3.1246634122184841e-01  -1.2335885506844359e-01  -2.9957789286551162e-01  2.7254438423739769e-01  4.4965905916904381e-01  -2.3394401595008546e-01  9.7627245450732057e-03  1.2156467078703239e-02  3.5736393311440157e-01  -2.5201242523204337e-01  -3.4745165616296503e-01  2.1323107283941126e-01  -1.5693158694756619e-02  3.8939612202413521e-01  -3.8486827054048217e-01  -3.5427651505748492e-01  1.5369721989639634e-01  -3.7908296304799444e-02  1.0188492768400684e-01  6.2751668307473515e-02  -5.9157306953388812e-02  4.2855872937450379e-01  -1.4798418035814476e-01  -4.1922240780460152e-01  3.9916701000249100e-01  4.6603849780367057e-01  -9.6838142915050288e-02  -4.9161422556764844e-01  5.0930526344476168e-01  4.0920773486072912e-02  -1.3856372155747211e-02  5.4112839973799709e-01  -6.0159626342221628e-01  -6.9185860750036265e-01  -8.2594901326057853e-03  -1.0486303125667949e-01  1.3547173119842021e-01  9.9427177746398157e-02  -1.5002683682430407e-01  -3.2485243577906893e-02  6.7829784236586380e-02  3.6612895718091232e-02  -3.9022067548628837e-02  2.2783095219672955e-01  -9.8962056725587721e-02  -1.9489397960867713e-01  1.7190454602452768e-01  2.0997496335435933e-02  3.9485732251597835e-02  2.2789076479358319e-02  5.2203437356841589e-02  4.1572938399238013e-01  -5.7695870039836089e-02  -4.5554473452212157e-01  4.7171059759729439e-01  7.2327122788862469e-02  4.4438052640677550e-01  -2.1844260018360870e-01  -4.4230639569468966e-01  2.1417685508509282e-01  2.7195879233199749e-01  -1.7220181581626312e-01  -2.4492899410860167e-01  1.6357155802665738e-01  4.1736507562978413e-02  -1.9226985611350871e-02  -1.0420255220157454e-01  8.8018373531250402e-02  </DataArray> 
</PointData> 
</Piece>
</UnstructuredGrid>
</VTKFile>